/*--------------------------------*- C++ -*----------------------------------*\
| =========                 |                                                 |
| \\      /  F ield         | OpenFOAM: The Open Source CFD Toolbox           |
|  \\    /   O peration     | Version:  2.4.0-MNF                             |
|   \\  /    A nd           | Web:      www.OpenFOAM.org                      |
|    \\/     M anipulation  |                                                 |
\*---------------------------------------------------------------------------*/
FoamFile
{
    version     2.0;
    format      ascii;
    class       volScalarField;
    location    "5e-05";
    object      dsmcSigmaTcRMax;
}
// * * * * * * * * * * * * * * * * * * * * * * * * * * * * * * * * * * * * * //

dimensions      [0 3 -1 0 0 0 0];

internalField   nonuniform List<scalar> 
77760
(
3.83609e-16
4.13802e-16
3.883e-16
3.65498e-16
4.32301e-16
4.22359e-16
3.46541e-16
3.57448e-16
3.75252e-16
5.73653e-16
3.73597e-16
3.59297e-16
3.12996e-16
3.63093e-16
4.10614e-16
3.6157e-16
4.07776e-16
3.65806e-16
5.03187e-16
5.35163e-16
3.9211e-16
4.18035e-16
4.08655e-16
3.66997e-16
3.76765e-16
3.57551e-16
4.49406e-16
5.17016e-16
5.03249e-16
5.83631e-16
3.92282e-16
3.53707e-16
3.80529e-16
3.58281e-16
3.77798e-16
3.60091e-16
3.7393e-16
3.85961e-16
4.17854e-16
3.73035e-16
3.4922e-16
3.74905e-16
3.75699e-16
3.77998e-16
4.20165e-16
3.65914e-16
3.82025e-16
4.09432e-16
5.5852e-16
3.75203e-16
4.0532e-16
3.3822e-16
3.9276e-16
3.83858e-16
3.69588e-16
3.5371e-16
3.98729e-16
5.452e-16
5.64306e-16
5.6534e-16
3.50035e-16
3.83191e-16
3.6381e-16
3.18518e-16
3.62628e-16
3.79773e-16
4.22629e-16
5.31019e-16
5.36377e-16
3.667e-16
3.87576e-16
3.73482e-16
4.07109e-16
3.54403e-16
3.85938e-16
3.60281e-16
3.72264e-16
3.79947e-16
5.7898e-16
5.42403e-16
3.64916e-16
4.13386e-16
4.30424e-16
3.84448e-16
3.55464e-16
3.86156e-16
3.86458e-16
3.82294e-16
3.60021e-16
5.96987e-16
3.94318e-16
3.76349e-16
3.70205e-16
3.55239e-16
3.68196e-16
3.9313e-16
3.61073e-16
4.101e-16
3.62342e-16
4.97215e-16
3.40861e-16
4.08156e-16
3.77289e-16
3.63812e-16
3.57836e-16
3.93259e-16
3.6585e-16
4.02216e-16
5.61868e-16
3.59893e-16
3.51916e-16
3.85121e-16
4.06648e-16
3.82741e-16
3.83996e-16
3.66323e-16
3.83879e-16
3.9259e-16
3.88677e-16
5.78238e-16
4.3214e-16
3.85029e-16
3.78772e-16
3.80127e-16
4.00643e-16
3.62744e-16
3.63522e-16
3.72395e-16
4.75103e-16
5.86238e-16
3.96026e-16
4.06972e-16
3.86958e-16
3.72663e-16
3.47268e-16
4.01628e-16
3.7187e-16
4.07555e-16
3.83286e-16
5.81513e-16
3.76685e-16
4.22822e-16
3.72183e-16
3.8263e-16
3.5881e-16
3.83604e-16
3.97609e-16
3.99396e-16
4.00148e-16
5.66947e-16
3.59907e-16
3.80487e-16
4.22083e-16
3.99411e-16
3.625e-16
3.71981e-16
4.03867e-16
3.43543e-16
5.48522e-16
5.67177e-16
4.13965e-16
3.71512e-16
3.83467e-16
3.66301e-16
4.00901e-16
3.84534e-16
4.16475e-16
3.9377e-16
5.43585e-16
5.45362e-16
4.07294e-16
3.99878e-16
3.7093e-16
3.94049e-16
3.77756e-16
3.89301e-16
3.64855e-16
3.89271e-16
6.0178e-16
5.80831e-16
4.20954e-16
4.14121e-16
3.91404e-16
3.93058e-16
3.86155e-16
3.4948e-16
3.4582e-16
5.56301e-16
4.00277e-16
6.15057e-16
3.88603e-16
3.67653e-16
4.03213e-16
3.94673e-16
3.71385e-16
4.22839e-16
3.72332e-16
4.07628e-16
5.76301e-16
5.58805e-16
4.08333e-16
3.84429e-16
3.78583e-16
3.44954e-16
3.72751e-16
3.74593e-16
3.96847e-16
4.07325e-16
3.82766e-16
5.87497e-16
3.42351e-16
3.54018e-16
3.90313e-16
3.80129e-16
3.78805e-16
3.59427e-16
3.62178e-16
4.12325e-16
3.86891e-16
3.42947e-16
3.56213e-16
3.96596e-16
3.66087e-16
3.68324e-16
4.10149e-16
3.88938e-16
3.81834e-16
3.90312e-16
5.34458e-16
5.59933e-16
3.76835e-16
4.36551e-16
4.0017e-16
3.69322e-16
3.49195e-16
3.55992e-16
5.80712e-16
3.77859e-16
3.9688e-16
3.9393e-16
4.11032e-16
3.90459e-16
3.93517e-16
4.11583e-16
4.1553e-16
4.16755e-16
4.13856e-16
3.55842e-16
4.07545e-16
5.60378e-16
3.75747e-16
3.7642e-16
3.50494e-16
3.79467e-16
3.45825e-16
3.69752e-16
3.76532e-16
3.54441e-16
3.70937e-16
5.59465e-16
3.99701e-16
3.93214e-16
3.76177e-16
3.66336e-16
4.11456e-16
3.84943e-16
5.35584e-16
4.4315e-16
4.0484e-16
5.44595e-16
3.86484e-16
3.77206e-16
4.08644e-16
4.20709e-16
4.11774e-16
4.20287e-16
3.55625e-16
3.80889e-16
3.82299e-16
5.18494e-16
3.74013e-16
3.4681e-16
3.45812e-16
3.58822e-16
3.74452e-16
3.8539e-16
3.66233e-16
3.97078e-16
5.63802e-16
5.8231e-16
3.95965e-16
3.4061e-16
4.14771e-16
4.11044e-16
3.73797e-16
4.05675e-16
3.7836e-16
4.27391e-16
3.95259e-16
5.91561e-16
3.97843e-16
3.53517e-16
3.59043e-16
3.77031e-16
3.76957e-16
3.98137e-16
3.59764e-16
4.21335e-16
3.7856e-16
5.58918e-16
3.76936e-16
4.09408e-16
3.9747e-16
3.58678e-16
4.33196e-16
3.872e-16
3.78954e-16
3.6612e-16
4.23429e-16
5.50846e-16
3.79221e-16
3.93844e-16
3.39025e-16
3.8885e-16
3.47987e-16
3.75178e-16
3.53559e-16
3.84138e-16
4.17198e-16
5.49358e-16
3.56082e-16
4.31166e-16
3.78843e-16
3.65439e-16
3.77765e-16
4.09617e-16
3.80988e-16
3.80537e-16
4.02258e-16
5.07045e-16
3.82161e-16
3.62957e-16
3.68164e-16
4.01158e-16
3.64664e-16
3.8987e-16
3.75549e-16
3.51135e-16
4.20313e-16
3.77502e-16
4.18911e-16
4.25174e-16
4.05726e-16
3.88381e-16
4.21145e-16
4.21145e-16
3.66989e-16
4.06496e-16
3.75554e-16
4.06071e-16
4.02999e-16
3.84922e-16
3.89293e-16
3.93772e-16
3.66627e-16
3.81382e-16
3.93713e-16
5.37333e-16
3.72135e-16
5.86457e-16
4.18678e-16
3.56514e-16
3.75292e-16
4.04255e-16
3.83102e-16
3.67774e-16
3.96502e-16
3.76015e-16
5.68405e-16
3.82759e-16
3.8148e-16
3.7305e-16
4.0999e-16
3.85147e-16
3.7343e-16
5.87138e-16
3.77316e-16
5.74025e-16
5.84502e-16
3.954e-16
3.64847e-16
3.72652e-16
3.97414e-16
3.75173e-16
3.97432e-16
3.98279e-16
3.70922e-16
3.71904e-16
3.64563e-16
5.12395e-16
3.82854e-16
3.58295e-16
3.83942e-16
3.92553e-16
4.53705e-16
3.74587e-16
5.41009e-16
3.69981e-16
5.57415e-16
4.89165e-16
3.6183e-16
3.94068e-16
3.78936e-16
3.74988e-16
3.83466e-16
4.22615e-16
4.06996e-16
4.24176e-16
3.63116e-16
5.5415e-16
3.97975e-16
4.25596e-16
4.01498e-16
4.18078e-16
3.83989e-16
3.76548e-16
4.09521e-16
4.05706e-16
3.85241e-16
3.70015e-16
4.06828e-16
3.82108e-16
3.76687e-16
3.67424e-16
3.89864e-16
3.77423e-16
3.71259e-16
5.22674e-16
3.84143e-16
5.01879e-16
3.89175e-16
3.6529e-16
3.39221e-16
3.6763e-16
3.66223e-16
3.77334e-16
4.06546e-16
4.07045e-16
4.38199e-16
5.43062e-16
3.9196e-16
3.77062e-16
4.02949e-16
3.49519e-16
3.28022e-16
3.59087e-16
3.84804e-16
4.17565e-16
5.78987e-16
3.71457e-16
3.94249e-16
3.99836e-16
3.9207e-16
4.11991e-16
3.88245e-16
3.75593e-16
3.39659e-16
3.79544e-16
3.8916e-16
5.3653e-16
4.2013e-16
3.6843e-16
4.08182e-16
4.16523e-16
3.89192e-16
5.66873e-16
5.88742e-16
3.69637e-16
5.40487e-16
5.5552e-16
3.7077e-16
3.91976e-16
3.71772e-16
3.95909e-16
3.69938e-16
3.84694e-16
4.12608e-16
3.69102e-16
6.03883e-16
5.6445e-16
4.13475e-16
4.11707e-16
3.85908e-16
3.5354e-16
3.8489e-16
3.89757e-16
3.96914e-16
3.73968e-16
3.78983e-16
5.76322e-16
3.96563e-16
3.68902e-16
4.18028e-16
3.90251e-16
3.8746e-16
3.63747e-16
3.94616e-16
4.0272e-16
5.78475e-16
6.44904e-16
3.84924e-16
3.99029e-16
3.85134e-16
4.20373e-16
4.00786e-16
3.67403e-16
4.0111e-16
5.83841e-16
5.45648e-16
5.0077e-16
3.48635e-16
4.29405e-16
3.74558e-16
4.39699e-16
4.09186e-16
3.80825e-16
4.28607e-16
4.09744e-16
3.60493e-16
3.86899e-16
4.03029e-16
3.9876e-16
4.02552e-16
3.77375e-16
4.27496e-16
3.38664e-16
3.61157e-16
3.81867e-16
5.3117e-16
5.61017e-16
4.03995e-16
3.48831e-16
3.94588e-16
3.76611e-16
3.77613e-16
3.86006e-16
4.02276e-16
3.98222e-16
3.77393e-16
3.82812e-16
3.78337e-16
3.57255e-16
3.92299e-16
4.18526e-16
3.55489e-16
3.81508e-16
4.07266e-16
3.49988e-16
3.91373e-16
4.2074e-16
3.97167e-16
3.85294e-16
4.06156e-16
4.10636e-16
4.00596e-16
3.79502e-16
3.818e-16
3.53906e-16
3.80565e-16
5.53565e-16
3.82004e-16
4.10871e-16
4.06054e-16
4.16349e-16
3.70375e-16
3.56597e-16
5.97774e-16
3.42691e-16
5.45451e-16
5.43436e-16
3.70461e-16
4.02266e-16
3.63026e-16
3.89227e-16
3.58519e-16
4.01785e-16
3.95544e-16
5.5737e-16
4.16643e-16
3.98383e-16
3.78042e-16
3.78887e-16
3.41023e-16
3.65322e-16
3.75268e-16
4.18036e-16
3.45532e-16
3.93836e-16
3.76143e-16
5.35576e-16
3.98246e-16
4.08006e-16
3.76842e-16
3.9097e-16
3.791e-16
3.72711e-16
5.38796e-16
5.67622e-16
5.59087e-16
3.79938e-16
3.60485e-16
3.85499e-16
4.04569e-16
3.64316e-16
3.56077e-16
3.85151e-16
3.86952e-16
3.55934e-16
3.93574e-16
5.00307e-16
3.87574e-16
4.20038e-16
3.76017e-16
3.76138e-16
3.65062e-16
3.91738e-16
3.70187e-16
3.57567e-16
5.83049e-16
6.04722e-16
4.03245e-16
4.13583e-16
3.56996e-16
3.75532e-16
3.7317e-16
3.77746e-16
3.59444e-16
4.1958e-16
3.85578e-16
5.56929e-16
4.15172e-16
3.60063e-16
3.89244e-16
3.72142e-16
3.40284e-16
3.84594e-16
4.10727e-16
5.34191e-16
5.68358e-16
5.56546e-16
3.77299e-16
3.6544e-16
3.31987e-16
3.76632e-16
3.37107e-16
3.7947e-16
3.85302e-16
5.66317e-16
4.55077e-16
5.81064e-16
3.7168e-16
3.81776e-16
3.82763e-16
4.01644e-16
3.87962e-16
3.60152e-16
4.17491e-16
3.54408e-16
3.99954e-16
5.54424e-16
4.08914e-16
4.04059e-16
3.38598e-16
4.00044e-16
3.69592e-16
3.7661e-16
3.42798e-16
3.52346e-16
3.95132e-16
4.01253e-16
3.89611e-16
3.25805e-16
3.75873e-16
3.93636e-16
4.00268e-16
3.70613e-16
3.77422e-16
5.40029e-16
5.56871e-16
5.5527e-16
4.03202e-16
3.61551e-16
3.92893e-16
3.98382e-16
4.30813e-16
4.16511e-16
3.79129e-16
3.76925e-16
4.08109e-16
4.85823e-16
3.76976e-16
3.44162e-16
3.40472e-16
3.75679e-16
3.67464e-16
4.35019e-16
3.90008e-16
6.12933e-16
3.78203e-16
4.46852e-16
3.35291e-16
3.8278e-16
3.82754e-16
3.84386e-16
4.21411e-16
4.4966e-16
3.76352e-16
3.80525e-16
3.9786e-16
4.97356e-16
4.34256e-16
3.75172e-16
3.44139e-16
4.10236e-16
3.96381e-16
3.73111e-16
4.01419e-16
3.90887e-16
4.32029e-16
5.31808e-16
3.98973e-16
3.48355e-16
4.03127e-16
3.56432e-16
3.7162e-16
4.0871e-16
3.67054e-16
3.55219e-16
6.46934e-16
5.3175e-16
4.20138e-16
3.95176e-16
3.96493e-16
3.65141e-16
3.56547e-16
5.95066e-16
4.147e-16
3.89481e-16
3.8782e-16
5.56923e-16
3.97005e-16
3.5186e-16
4.04026e-16
3.98619e-16
4.17526e-16
3.81237e-16
4.0259e-16
3.55946e-16
3.8954e-16
5.38791e-16
4.16759e-16
3.89139e-16
3.98081e-16
3.81887e-16
3.55246e-16
4.33786e-16
3.91248e-16
3.8942e-16
3.51292e-16
4.30943e-16
3.42917e-16
4.36348e-16
3.71517e-16
3.70699e-16
3.83352e-16
3.89836e-16
4.03491e-16
4.69064e-16
3.84878e-16
5.04759e-16
3.87892e-16
3.38014e-16
3.76517e-16
4.0105e-16
3.92821e-16
3.58573e-16
4.02883e-16
3.6113e-16
4.10265e-16
5.38686e-16
3.75396e-16
4.62123e-16
3.47133e-16
3.38948e-16
3.99967e-16
4.22257e-16
3.89168e-16
3.72256e-16
5.2792e-16
5.49349e-16
3.82272e-16
3.80316e-16
3.8135e-16
3.84776e-16
4.41655e-16
4.1283e-16
3.93803e-16
3.94976e-16
5.68098e-16
5.47502e-16
3.30768e-16
3.91748e-16
3.79732e-16
4.31703e-16
3.93286e-16
4.06391e-16
3.54445e-16
3.87369e-16
4.03459e-16
3.64568e-16
4.16921e-16
3.805e-16
3.90876e-16
3.70423e-16
3.86002e-16
3.98609e-16
3.81277e-16
3.99053e-16
3.81208e-16
4.03028e-16
3.86551e-16
3.66235e-16
3.93431e-16
3.27683e-16
4.03082e-16
3.62431e-16
3.63235e-16
4.16322e-16
3.64773e-16
4.78139e-16
3.94953e-16
3.82261e-16
3.64076e-16
3.84953e-16
3.87832e-16
3.76684e-16
3.8283e-16
3.68995e-16
3.89386e-16
5.71936e-16
3.71576e-16
3.63299e-16
3.54822e-16
4.00308e-16
3.84047e-16
3.52163e-16
3.97327e-16
3.75887e-16
4.17144e-16
5.31412e-16
3.6007e-16
3.59316e-16
3.59586e-16
4.36925e-16
4.05697e-16
3.75339e-16
6.24958e-16
3.34797e-16
4.2548e-16
5.65685e-16
3.97086e-16
4.17829e-16
4.05841e-16
3.49748e-16
3.76129e-16
6.38352e-16
3.52571e-16
3.73087e-16
5.25608e-16
3.67315e-16
3.91644e-16
3.57624e-16
3.78319e-16
3.64932e-16
4.38002e-16
3.5254e-16
4.08432e-16
4.02098e-16
5.66665e-16
3.8828e-16
3.72028e-16
4.59749e-16
4.16978e-16
3.5897e-16
4.35858e-16
3.49324e-16
3.65201e-16
3.57681e-16
3.85214e-16
4.5799e-16
3.89328e-16
4.17809e-16
4.16526e-16
3.95985e-16
3.85231e-16
3.74707e-16
3.8105e-16
3.91318e-16
4.04624e-16
3.54874e-16
3.90712e-16
3.82718e-16
3.95898e-16
3.5041e-16
3.76882e-16
3.66193e-16
3.68881e-16
3.77897e-16
5.19286e-16
5.51203e-16
3.87446e-16
4.22383e-16
4.20809e-16
3.8225e-16
4.49931e-16
3.52079e-16
3.78743e-16
4.02602e-16
3.80411e-16
5.70043e-16
3.90478e-16
3.6958e-16
3.84662e-16
3.63387e-16
3.75984e-16
3.89243e-16
4.00058e-16
3.83876e-16
3.70657e-16
5.2292e-16
3.48922e-16
3.84146e-16
3.63361e-16
3.78945e-16
3.9223e-16
3.7965e-16
4.31514e-16
3.85065e-16
4.03935e-16
4.32516e-16
3.47104e-16
4.22733e-16
3.89267e-16
3.59816e-16
3.85038e-16
4.01703e-16
3.90869e-16
4.02383e-16
3.76576e-16
3.92439e-16
3.63062e-16
3.92189e-16
4.0939e-16
3.81086e-16
4.04521e-16
3.71578e-16
4.18012e-16
3.61195e-16
3.6266e-16
5.26519e-16
3.72923e-16
3.71483e-16
3.69973e-16
3.78115e-16
3.47957e-16
4.00279e-16
3.6454e-16
4.85781e-16
3.81051e-16
5.70667e-16
4.02299e-16
3.32303e-16
4.10647e-16
3.63764e-16
4.1871e-16
3.59729e-16
3.67199e-16
3.63977e-16
4.02934e-16
4.16663e-16
3.66492e-16
3.61235e-16
3.74534e-16
3.95915e-16
3.85966e-16
3.82937e-16
3.81077e-16
4.09413e-16
3.32886e-16
5.57291e-16
3.573e-16
3.59616e-16
4.02377e-16
4.18836e-16
3.92649e-16
4.11681e-16
3.95152e-16
3.66524e-16
5.74273e-16
5.7468e-16
3.43678e-16
4.01893e-16
3.89439e-16
3.73233e-16
3.66052e-16
3.83341e-16
3.58218e-16
3.78609e-16
4.17983e-16
5.48111e-16
4.12622e-16
4.31502e-16
3.78069e-16
3.50377e-16
3.97553e-16
3.8308e-16
3.75386e-16
3.65775e-16
3.84513e-16
5.71383e-16
3.90401e-16
4.08558e-16
3.98354e-16
3.82127e-16
4.0184e-16
3.58012e-16
4.01468e-16
5.89204e-16
4.50106e-16
4.09499e-16
3.79966e-16
3.40671e-16
4.04884e-16
3.8652e-16
3.67777e-16
3.90427e-16
3.4801e-16
3.81836e-16
3.62361e-16
4.17774e-16
3.89982e-16
3.81343e-16
3.62074e-16
3.6901e-16
4.21665e-16
3.69229e-16
3.85556e-16
3.95789e-16
3.93526e-16
4.75488e-16
4.00856e-16
4.18014e-16
4.2877e-16
4.19475e-16
3.6489e-16
3.66907e-16
4.32602e-16
4.20992e-16
3.67274e-16
4.14337e-16
3.73215e-16
3.77609e-16
3.96507e-16
3.6954e-16
3.77541e-16
3.89512e-16
3.79911e-16
4.32848e-16
4.03434e-16
5.31449e-16
3.36814e-16
3.8418e-16
4.14188e-16
4.01124e-16
3.99707e-16
3.51299e-16
3.93539e-16
3.72846e-16
4.0552e-16
5.54368e-16
3.81977e-16
4.17302e-16
3.72172e-16
4.03937e-16
3.89951e-16
3.81155e-16
3.55148e-16
3.77672e-16
3.9924e-16
5.71698e-16
3.85893e-16
3.52057e-16
3.51136e-16
3.88989e-16
3.95259e-16
4.10688e-16
3.39569e-16
5.61754e-16
3.62771e-16
5.662e-16
4.1092e-16
4.2572e-16
4.06717e-16
3.5391e-16
3.76651e-16
3.65995e-16
3.98406e-16
5.91899e-16
3.98426e-16
5.10166e-16
3.61814e-16
3.77148e-16
3.75426e-16
3.4657e-16
3.90358e-16
3.55882e-16
3.89515e-16
3.79995e-16
3.84145e-16
5.67753e-16
3.71342e-16
3.65661e-16
3.79278e-16
4.1109e-16
3.6362e-16
3.43911e-16
3.51943e-16
3.99106e-16
3.56251e-16
3.77184e-16
4.15158e-16
3.91213e-16
4.08279e-16
3.83433e-16
3.79157e-16
3.94669e-16
3.9327e-16
3.64431e-16
4.17275e-16
3.92799e-16
3.65685e-16
3.8401e-16
3.75256e-16
3.99179e-16
3.88538e-16
4.43197e-16
4.01443e-16
4.0077e-16
4.22302e-16
3.63382e-16
3.73409e-16
3.74733e-16
3.79079e-16
3.84247e-16
4.19933e-16
3.77912e-16
4.06591e-16
3.76772e-16
3.93229e-16
4.68459e-16
3.72529e-16
3.66912e-16
3.83215e-16
4.58357e-16
4.02972e-16
3.87194e-16
3.60809e-16
3.82331e-16
4.23351e-16
3.71347e-16
3.76727e-16
3.51654e-16
3.73388e-16
4.01125e-16
3.62912e-16
3.57222e-16
3.55397e-16
3.77125e-16
3.60223e-16
3.95015e-16
3.71259e-16
3.81957e-16
3.7415e-16
3.76739e-16
4.16986e-16
4.04093e-16
3.37944e-16
3.54227e-16
4.08682e-16
5.16558e-16
3.77131e-16
3.67796e-16
3.91913e-16
4.05448e-16
4.13908e-16
3.91046e-16
3.95116e-16
3.8461e-16
4.01422e-16
4.07075e-16
4.04643e-16
3.56609e-16
3.63013e-16
4.18585e-16
3.95316e-16
3.78219e-16
3.82705e-16
5.76462e-16
3.76973e-16
5.26936e-16
4.09229e-16
3.73001e-16
3.98007e-16
3.45697e-16
3.82492e-16
3.35783e-16
3.70114e-16
4.19104e-16
3.79201e-16
3.58905e-16
3.94095e-16
3.99386e-16
3.74305e-16
3.81289e-16
4.31093e-16
3.78897e-16
3.67641e-16
4.005e-16
4.05306e-16
3.55509e-16
4.03411e-16
4.02194e-16
3.69268e-16
3.91867e-16
4.12528e-16
3.86444e-16
4.03602e-16
3.54483e-16
3.76152e-16
3.96139e-16
3.48466e-16
3.80501e-16
4.07375e-16
4.09492e-16
3.54685e-16
3.46743e-16
3.97877e-16
3.96462e-16
3.99653e-16
4.19332e-16
3.66277e-16
4.21322e-16
3.8234e-16
3.92649e-16
4.24577e-16
3.93815e-16
3.59501e-16
4.10243e-16
3.6059e-16
3.94833e-16
3.35871e-16
3.91362e-16
3.86047e-16
4.0378e-16
3.54273e-16
3.81403e-16
3.91879e-16
4.02936e-16
5.66194e-16
3.70246e-16
3.9562e-16
3.89408e-16
3.62158e-16
3.68091e-16
3.88077e-16
3.9677e-16
3.63278e-16
3.67196e-16
3.61734e-16
3.87792e-16
4.07394e-16
3.75247e-16
3.95883e-16
4.1133e-16
3.62975e-16
3.92398e-16
3.62337e-16
3.82701e-16
3.32651e-16
3.56645e-16
3.72472e-16
3.79692e-16
3.94621e-16
3.6468e-16
4.04853e-16
4.33026e-16
3.83069e-16
3.83704e-16
3.92684e-16
4.23288e-16
4.09827e-16
3.99347e-16
3.62162e-16
3.87423e-16
4.21302e-16
3.8608e-16
3.87947e-16
5.41177e-16
5.47011e-16
3.92975e-16
3.72817e-16
4.01742e-16
3.94496e-16
3.5568e-16
3.47312e-16
4.01282e-16
4.09539e-16
3.72464e-16
5.29906e-16
4.89531e-16
3.44136e-16
4.05678e-16
3.70015e-16
3.77857e-16
3.48038e-16
3.86676e-16
3.90296e-16
5.27039e-16
5.33515e-16
3.83922e-16
3.73101e-16
3.74233e-16
3.69304e-16
3.83802e-16
3.60616e-16
3.79965e-16
3.9618e-16
5.47271e-16
3.65536e-16
5.72918e-16
4.10014e-16
3.84079e-16
4.05148e-16
3.86707e-16
3.8138e-16
3.6617e-16
3.97591e-16
3.92762e-16
5.64299e-16
3.58337e-16
3.5327e-16
3.97524e-16
3.92272e-16
4.15947e-16
4.00635e-16
3.76508e-16
3.78207e-16
3.65682e-16
4.25374e-16
3.43509e-16
3.71418e-16
3.81162e-16
3.92137e-16
3.65094e-16
3.95376e-16
3.98242e-16
3.61982e-16
4.03055e-16
4.05877e-16
3.76452e-16
3.89121e-16
3.62209e-16
4.07865e-16
3.67557e-16
3.99374e-16
3.81932e-16
3.56361e-16
3.58905e-16
3.85526e-16
3.45601e-16
3.73895e-16
3.75487e-16
3.93603e-16
3.80329e-16
3.84679e-16
4.08983e-16
3.9537e-16
5.87561e-16
3.80875e-16
3.78154e-16
3.87524e-16
3.91052e-16
3.78054e-16
3.79312e-16
3.8339e-16
4.15904e-16
4.07233e-16
3.91796e-16
4.21998e-16
3.64119e-16
3.92065e-16
3.85874e-16
4.23197e-16
4.00673e-16
4.06225e-16
3.6119e-16
3.62094e-16
4.03974e-16
3.95658e-16
4.1328e-16
3.96796e-16
4.03257e-16
3.94591e-16
4.18448e-16
3.65705e-16
3.98707e-16
3.78686e-16
4.24477e-16
3.6173e-16
3.69543e-16
4.15517e-16
3.63774e-16
3.68639e-16
4.20441e-16
3.61117e-16
3.81275e-16
3.64535e-16
3.40714e-16
4.00199e-16
5.78205e-16
4.20471e-16
3.69451e-16
3.75292e-16
3.40141e-16
4.33842e-16
3.73395e-16
3.64261e-16
4.31381e-16
4.55885e-16
5.76111e-16
4.02616e-16
4.08299e-16
3.69155e-16
3.69242e-16
3.78631e-16
5.53181e-16
5.80031e-16
4.03767e-16
3.86417e-16
5.75241e-16
3.91607e-16
3.54363e-16
3.73089e-16
3.71802e-16
3.89195e-16
3.74273e-16
4.08719e-16
3.94571e-16
5.44925e-16
3.60518e-16
3.92161e-16
3.85868e-16
3.94451e-16
3.88601e-16
3.7045e-16
3.76447e-16
4.05501e-16
3.74506e-16
5.69741e-16
4.25402e-16
4.28206e-16
4.17663e-16
3.95674e-16
3.85971e-16
3.42355e-16
3.73057e-16
3.76484e-16
4.00048e-16
3.71291e-16
3.85022e-16
3.55173e-16
3.97779e-16
3.72851e-16
4.225e-16
3.8376e-16
5.57003e-16
4.11992e-16
3.7044e-16
3.96864e-16
3.80701e-16
3.69782e-16
3.37313e-16
3.84449e-16
3.34916e-16
3.88269e-16
3.89073e-16
3.74468e-16
4.06536e-16
3.63105e-16
3.34019e-16
3.60789e-16
3.93616e-16
3.65865e-16
4.01731e-16
3.72785e-16
3.80934e-16
3.7802e-16
3.7197e-16
3.74668e-16
4.04542e-16
3.91308e-16
3.61962e-16
3.93512e-16
3.90069e-16
3.84587e-16
4.16393e-16
4.20689e-16
3.49963e-16
3.7767e-16
5.62626e-16
3.69771e-16
3.80353e-16
3.80386e-16
3.88694e-16
3.77091e-16
4.08091e-16
4.04216e-16
4.39223e-16
4.02259e-16
3.49021e-16
4.01431e-16
3.78546e-16
3.90738e-16
3.80398e-16
3.61052e-16
3.58777e-16
3.90047e-16
4.07553e-16
3.74313e-16
4.04568e-16
3.71445e-16
3.53658e-16
4.16665e-16
3.82487e-16
3.86752e-16
4.29321e-16
3.94527e-16
3.88555e-16
4.02457e-16
4.2029e-16
3.58912e-16
3.47234e-16
3.81794e-16
3.32342e-16
4.27223e-16
4.29787e-16
4.08367e-16
3.72194e-16
5.35051e-16
3.81176e-16
3.88359e-16
4.24586e-16
3.57873e-16
3.67758e-16
3.81654e-16
3.66829e-16
4.3878e-16
4.24737e-16
3.70418e-16
4.06079e-16
3.84821e-16
3.40902e-16
4.09799e-16
3.55584e-16
3.68262e-16
3.9566e-16
3.88441e-16
3.64636e-16
3.63103e-16
4.23213e-16
3.83269e-16
3.96173e-16
3.81129e-16
4.071e-16
3.65449e-16
4.01527e-16
3.68104e-16
3.82142e-16
5.41746e-16
4.73759e-16
4.55244e-16
3.86936e-16
3.9774e-16
4.00657e-16
3.84715e-16
3.55674e-16
3.48008e-16
3.63482e-16
5.54761e-16
4.20664e-16
3.68679e-16
3.99282e-16
3.45298e-16
3.75816e-16
3.90445e-16
4.24579e-16
3.66987e-16
3.99339e-16
3.51226e-16
4.04438e-16
3.62694e-16
4.07518e-16
4.06447e-16
3.43891e-16
3.58584e-16
3.984e-16
4.02787e-16
3.72152e-16
3.84167e-16
3.48807e-16
3.85845e-16
3.6019e-16
3.94193e-16
4.12496e-16
3.81789e-16
4.05766e-16
3.66341e-16
3.711e-16
3.91431e-16
3.53237e-16
3.55198e-16
3.68765e-16
3.69426e-16
3.78329e-16
3.95642e-16
4.17478e-16
3.63924e-16
3.7431e-16
3.73741e-16
3.61321e-16
3.97318e-16
3.57325e-16
3.63503e-16
3.73234e-16
3.59246e-16
3.70405e-16
3.82992e-16
3.82538e-16
5.31487e-16
3.92458e-16
3.55796e-16
4.02796e-16
3.69757e-16
4.11783e-16
4.14476e-16
3.7036e-16
3.70202e-16
3.85401e-16
3.73416e-16
5.46744e-16
3.77169e-16
4.42097e-16
4.11515e-16
3.83346e-16
3.60143e-16
4.09694e-16
4.07171e-16
3.38468e-16
4.14831e-16
3.72364e-16
3.79922e-16
3.90131e-16
4.21887e-16
3.65584e-16
4.26952e-16
3.89005e-16
3.50032e-16
4.12833e-16
3.74547e-16
4.1026e-16
3.33981e-16
4.17711e-16
4.29461e-16
3.94152e-16
3.80021e-16
4.23648e-16
3.62233e-16
3.47188e-16
3.51923e-16
3.97442e-16
3.76677e-16
3.55873e-16
4.17753e-16
4.00131e-16
3.50479e-16
3.83566e-16
5.75467e-16
3.88523e-16
3.62303e-16
5.62995e-16
4.03052e-16
3.79816e-16
3.82261e-16
3.92339e-16
3.76605e-16
3.38923e-16
3.65336e-16
4.12871e-16
3.96063e-16
3.87652e-16
3.71754e-16
3.74061e-16
3.72845e-16
3.66053e-16
3.66376e-16
3.77706e-16
3.95817e-16
3.61281e-16
3.99628e-16
3.66846e-16
3.62507e-16
3.94069e-16
4.11411e-16
4.11499e-16
3.74713e-16
4.13367e-16
3.7666e-16
3.76049e-16
3.80437e-16
3.77285e-16
3.64304e-16
3.88495e-16
4.19201e-16
3.79803e-16
3.30615e-16
6.26042e-16
4.15132e-16
3.47637e-16
4.00638e-16
3.87893e-16
3.69356e-16
3.72645e-16
4.22927e-16
3.70846e-16
4.05088e-16
3.95246e-16
3.77469e-16
4.03541e-16
3.6418e-16
3.65581e-16
3.7069e-16
3.79072e-16
3.49325e-16
3.49877e-16
3.57397e-16
3.59367e-16
3.61894e-16
4.03474e-16
3.86292e-16
3.93767e-16
4.10187e-16
3.57443e-16
3.59461e-16
3.46329e-16
4.10705e-16
4.17178e-16
3.86577e-16
5.74466e-16
3.66454e-16
3.61693e-16
4.20109e-16
4.45002e-16
3.75491e-16
3.5328e-16
3.76484e-16
3.87626e-16
4.16571e-16
4.7123e-16
3.87884e-16
4.08755e-16
3.82762e-16
3.63705e-16
3.69947e-16
3.66463e-16
3.93011e-16
3.86718e-16
3.9698e-16
4.02783e-16
3.89274e-16
4.17711e-16
3.37836e-16
3.80184e-16
3.95853e-16
3.61789e-16
3.55865e-16
3.87336e-16
3.97654e-16
4.10926e-16
4.11236e-16
4.12165e-16
3.91985e-16
3.96698e-16
3.92819e-16
4.07404e-16
3.7775e-16
3.84313e-16
4.08208e-16
3.34486e-16
6.00445e-16
4.22575e-16
4.17971e-16
4.10143e-16
3.99321e-16
3.80116e-16
3.73719e-16
3.60238e-16
5.61236e-16
4.19827e-16
4.07165e-16
5.69351e-16
3.65338e-16
3.91901e-16
3.71609e-16
4.07537e-16
3.50227e-16
3.86943e-16
3.74379e-16
3.96066e-16
4.10806e-16
3.82412e-16
3.6914e-16
3.58848e-16
3.581e-16
3.91238e-16
3.80216e-16
4.09112e-16
4.02728e-16
3.93873e-16
4.31554e-16
3.94174e-16
3.69655e-16
3.73891e-16
4.0591e-16
3.53733e-16
3.89792e-16
5.48103e-16
4.16653e-16
4.26436e-16
3.63527e-16
3.95043e-16
3.76018e-16
3.93193e-16
3.80915e-16
3.37462e-16
3.63543e-16
3.67885e-16
3.63502e-16
3.81836e-16
5.40144e-16
3.90468e-16
3.75872e-16
3.91386e-16
3.7049e-16
3.73944e-16
3.88714e-16
3.85367e-16
3.95596e-16
3.83444e-16
5.02676e-16
3.68894e-16
3.52536e-16
3.98735e-16
3.55588e-16
3.50411e-16
3.94692e-16
3.68696e-16
3.95352e-16
3.68515e-16
3.55249e-16
3.63911e-16
4.32043e-16
4.09798e-16
3.7703e-16
4.06625e-16
3.65352e-16
3.65224e-16
3.81211e-16
4.14699e-16
3.83e-16
5.68352e-16
3.64605e-16
3.67066e-16
3.99117e-16
3.86964e-16
3.8399e-16
4.1785e-16
3.61045e-16
3.78916e-16
3.74756e-16
4.10538e-16
3.41358e-16
3.72135e-16
4.10378e-16
3.64238e-16
3.35879e-16
3.80794e-16
3.52827e-16
4.13353e-16
5.44669e-16
3.87271e-16
3.71128e-16
3.59441e-16
3.56599e-16
4.07962e-16
3.77176e-16
3.7787e-16
3.30366e-16
4.22994e-16
4.41192e-16
3.81483e-16
4.1259e-16
3.69312e-16
4.24924e-16
4.04445e-16
4.02499e-16
3.5184e-16
3.9013e-16
3.96814e-16
3.7686e-16
3.92556e-16
3.93627e-16
3.63002e-16
3.92693e-16
4.07771e-16
3.86687e-16
3.76538e-16
3.95504e-16
3.8634e-16
3.78966e-16
4.00017e-16
3.86065e-16
4.07558e-16
4.2348e-16
4.09128e-16
3.94539e-16
3.96093e-16
3.70416e-16
3.54111e-16
3.80065e-16
3.9637e-16
3.60858e-16
3.926e-16
4.25546e-16
4.24282e-16
3.42611e-16
4.48232e-16
6.23731e-16
3.93328e-16
5.09783e-16
3.75683e-16
4.23346e-16
3.69667e-16
3.87248e-16
3.68865e-16
3.78677e-16
3.74153e-16
4.12302e-16
4.27432e-16
3.64847e-16
4.15207e-16
3.76499e-16
3.85814e-16
3.73674e-16
3.84127e-16
3.73787e-16
3.72921e-16
3.43808e-16
3.40624e-16
3.885e-16
4.3636e-16
3.98174e-16
3.83971e-16
4.05184e-16
3.89176e-16
3.52639e-16
5.75444e-16
3.98795e-16
3.56667e-16
3.93325e-16
3.69227e-16
3.81498e-16
3.92126e-16
3.95396e-16
3.70628e-16
3.59105e-16
3.60273e-16
3.81743e-16
4.37388e-16
3.51739e-16
5.104e-16
3.51349e-16
3.74951e-16
3.27845e-16
3.93392e-16
5.87615e-16
4.21753e-16
4.00065e-16
3.69136e-16
3.86701e-16
3.58729e-16
3.61229e-16
4.08817e-16
3.98789e-16
3.56925e-16
3.6727e-16
3.85756e-16
3.61315e-16
3.76296e-16
3.34755e-16
3.56286e-16
3.6441e-16
4.03756e-16
3.98434e-16
3.86642e-16
3.7847e-16
3.47641e-16
4.00396e-16
4.23754e-16
3.36407e-16
5.20629e-16
3.96174e-16
3.85478e-16
3.68174e-16
3.83789e-16
3.83816e-16
3.87575e-16
4.14362e-16
3.79318e-16
4.13365e-16
5.30846e-16
3.5088e-16
3.95296e-16
3.89136e-16
4.0418e-16
4.07705e-16
3.69768e-16
5.83858e-16
5.71141e-16
3.80658e-16
5.66399e-16
3.16036e-16
3.53682e-16
3.85477e-16
4.12667e-16
3.73537e-16
4.08579e-16
3.74929e-16
5.25554e-16
3.66048e-16
3.86345e-16
3.98275e-16
3.98628e-16
3.65348e-16
3.34459e-16
3.83736e-16
3.81796e-16
3.99817e-16
3.99817e-16
3.83689e-16
4.2932e-16
3.65091e-16
4.01793e-16
3.89672e-16
3.64444e-16
3.79282e-16
4.00448e-16
3.99541e-16
3.78808e-16
4.0386e-16
5.43134e-16
3.75132e-16
4.36652e-16
4.18355e-16
4.3475e-16
3.87198e-16
3.80708e-16
3.91778e-16
3.85268e-16
3.75923e-16
3.42082e-16
4.11622e-16
3.79358e-16
3.76689e-16
3.87974e-16
4.08469e-16
4.28669e-16
3.83609e-16
3.7275e-16
3.82891e-16
3.81128e-16
3.88168e-16
4.46068e-16
3.59342e-16
3.70825e-16
3.91679e-16
3.80273e-16
4.23284e-16
3.88475e-16
3.63725e-16
4.59304e-16
3.82611e-16
3.71076e-16
3.87382e-16
3.70313e-16
4.18181e-16
3.98637e-16
4.17861e-16
3.95298e-16
4.08606e-16
3.59982e-16
4.13887e-16
4.09577e-16
3.47568e-16
3.7795e-16
3.77636e-16
3.71734e-16
3.57814e-16
3.76392e-16
3.57205e-16
4.37944e-16
3.44698e-16
4.13102e-16
3.77831e-16
3.81334e-16
3.99373e-16
4.09945e-16
3.96035e-16
5.75307e-16
3.79715e-16
3.88931e-16
4.01387e-16
3.67508e-16
4.28488e-16
3.86166e-16
3.74735e-16
3.83715e-16
4.3138e-16
3.77374e-16
3.53021e-16
4.256e-16
4.23401e-16
3.89338e-16
3.63764e-16
3.6312e-16
3.7862e-16
3.86423e-16
3.83839e-16
3.27259e-16
3.8394e-16
3.89043e-16
3.82524e-16
3.34557e-16
3.39791e-16
5.8824e-16
3.70397e-16
3.9312e-16
3.95721e-16
4.42382e-16
5.2272e-16
5.40892e-16
4.19479e-16
3.53254e-16
3.47465e-16
3.8519e-16
3.99844e-16
3.86149e-16
3.69304e-16
3.72144e-16
5.69299e-16
3.39663e-16
3.70262e-16
3.76043e-16
3.74815e-16
4.21757e-16
3.70775e-16
4.00797e-16
3.81772e-16
3.83372e-16
3.68846e-16
3.9675e-16
4.27156e-16
3.65356e-16
3.76177e-16
3.77567e-16
3.60468e-16
5.66424e-16
3.93681e-16
5.75606e-16
5.62159e-16
4.04828e-16
3.52797e-16
3.77066e-16
4.07478e-16
3.97485e-16
4.0589e-16
3.93997e-16
4.11657e-16
4.19319e-16
3.76535e-16
3.80554e-16
3.73152e-16
3.87622e-16
3.88635e-16
3.75201e-16
3.72544e-16
3.66699e-16
3.87956e-16
3.65653e-16
3.85208e-16
3.98569e-16
3.81917e-16
4.08923e-16
4.12625e-16
3.91008e-16
4.19106e-16
3.96826e-16
4.89558e-16
3.87988e-16
4.16118e-16
3.857e-16
3.50597e-16
3.9573e-16
3.83008e-16
3.74788e-16
3.7278e-16
3.87852e-16
3.79649e-16
3.91071e-16
4.33262e-16
4.02567e-16
3.70576e-16
3.61431e-16
3.50934e-16
4.05398e-16
4.05703e-16
3.82123e-16
3.59159e-16
3.49958e-16
3.68442e-16
4.27093e-16
3.57995e-16
3.76313e-16
3.90679e-16
3.71798e-16
3.9017e-16
3.46299e-16
3.87278e-16
3.41564e-16
3.55034e-16
3.93344e-16
3.67534e-16
3.79665e-16
3.50046e-16
4.1179e-16
3.75077e-16
4.05109e-16
3.91129e-16
3.7564e-16
3.63955e-16
3.76772e-16
4.01377e-16
4.07756e-16
3.7191e-16
3.10681e-16
3.63584e-16
3.77544e-16
4.66856e-16
3.63907e-16
3.63256e-16
3.88258e-16
3.99324e-16
3.85481e-16
5.97752e-16
4.22366e-16
3.71397e-16
3.85575e-16
3.80534e-16
3.80554e-16
3.91203e-16
3.68178e-16
3.9453e-16
3.89465e-16
3.58128e-16
3.75863e-16
3.4677e-16
4.1137e-16
3.89135e-16
3.94537e-16
4.044e-16
4.04468e-16
3.59748e-16
3.75383e-16
3.83452e-16
3.75505e-16
4.05386e-16
3.65933e-16
4.33097e-16
4.141e-16
3.80821e-16
3.94444e-16
3.73714e-16
4.03068e-16
3.64476e-16
3.91348e-16
3.92915e-16
3.69569e-16
3.53552e-16
3.85542e-16
4.10062e-16
3.80555e-16
3.92635e-16
3.98795e-16
4.12683e-16
3.90533e-16
3.70659e-16
3.4688e-16
3.82174e-16
3.4723e-16
3.92354e-16
4.03608e-16
3.76497e-16
4.14902e-16
4.26544e-16
3.75515e-16
3.9106e-16
3.65995e-16
3.87498e-16
3.98588e-16
4.2236e-16
3.6512e-16
4.11398e-16
3.54389e-16
3.80989e-16
3.60529e-16
3.86418e-16
4.04063e-16
4.03751e-16
3.65245e-16
3.734e-16
4.05726e-16
3.40757e-16
3.84237e-16
3.85861e-16
3.91793e-16
3.98926e-16
4.00106e-16
3.95567e-16
4.30109e-16
3.79775e-16
3.43779e-16
3.94424e-16
3.8619e-16
3.99751e-16
3.78229e-16
3.78847e-16
3.32272e-16
3.43309e-16
3.78711e-16
4.07461e-16
3.46474e-16
4.19073e-16
3.64403e-16
4.23651e-16
3.45004e-16
3.92347e-16
3.56284e-16
3.27941e-16
4.17754e-16
3.55941e-16
3.80152e-16
3.66898e-16
3.83575e-16
3.81719e-16
3.99405e-16
3.70552e-16
4.04248e-16
3.93075e-16
3.84735e-16
3.97357e-16
3.9425e-16
4.02144e-16
3.85346e-16
3.92098e-16
3.57406e-16
4.08652e-16
3.77611e-16
3.86814e-16
4.19018e-16
3.9451e-16
4.23894e-16
3.56783e-16
4.03028e-16
3.95179e-16
3.76405e-16
3.9978e-16
3.52118e-16
3.93738e-16
3.92194e-16
3.73277e-16
4.16829e-16
3.91449e-16
4.02189e-16
3.81856e-16
3.52822e-16
4.16924e-16
3.94708e-16
3.6528e-16
3.79797e-16
3.58592e-16
5.56701e-16
4.25085e-16
3.9196e-16
3.66846e-16
3.99185e-16
3.80488e-16
3.89968e-16
3.96551e-16
4.13721e-16
3.91198e-16
4.00158e-16
3.53643e-16
4.06506e-16
3.83609e-16
4.01254e-16
4.2377e-16
3.65098e-16
3.93003e-16
4.23605e-16
3.92308e-16
3.69174e-16
4.01601e-16