/*--------------------------------*- C++ -*----------------------------------*\
| =========                 |                                                 |
| \\      /  F ield         | OpenFOAM: The Open Source CFD Toolbox           |
|  \\    /   O peration     | Version:  2.4.0-MNF                             |
|   \\  /    A nd           | Web:      www.OpenFOAM.org                      |
|    \\/     M anipulation  |                                                 |
\*---------------------------------------------------------------------------*/
FoamFile
{
    version     2.0;
    format      ascii;
    class       volVectorField;
    location    "5e-05";
    object      fD_Ar;
}
// * * * * * * * * * * * * * * * * * * * * * * * * * * * * * * * * * * * * * //

dimensions      [1 -1 -2 0 0 0 0];

internalField   uniform (0 0 0);

boundaryField
{
    flow
    {
        type            calculated;
        value           uniform (0 0 0);
    }
    entrance
    {
        type            symmetry;
    }
    walls
    {
        type            calculated;
        value           nonuniform List<vector> 
3600
(
(1.23837 -0.945548 0.104337)
(2.00074 -1.3601 0.299529)
(1.81935 -0.97943 0.0943049)
(1.2406 -0.666521 0.0529642)
(1.20338 -0.615425 0.0482795)
(1.1875 -0.633348 0.0349311)
(2.02961 -0.979694 -0.00549047)
(1.8568 -1.11695 0.0872418)
(0.880032 -0.564877 -0.144009)
(1.17633 -0.538706 -0.0695984)
(1.96197 -0.971428 0.0293979)
(1.14447 -0.566101 -0.00501877)
(1.44947 -0.780968 0.0108723)
(1.48182 -0.965068 -0.168791)
(0.595643 -0.288843 0.0907955)
(0.919922 -0.453711 0.0165642)
(1.2496 -0.678065 -0.0574451)
(1.61463 -0.880265 0.149653)
(1.59296 -0.807729 -0.0887446)
(1.44653 -0.840764 -0.101779)
(1.27473 -0.667233 0.0031705)
(1.27238 -0.613351 0.118876)
(1.40262 -0.734681 -0.0778569)
(1.46783 -0.716675 0.0750472)
(1.07667 -0.538331 -0.0164721)
(1.32802 -0.643803 -0.0305753)
(1.09962 -0.623742 -0.0776621)
(1.38662 -0.670357 0.0607601)
(1.82304 -1.00326 0.0862424)
(1.28327 -0.657476 0.0107224)
(1.22519 -0.704298 -0.00955362)
(1.88249 -0.963819 0.0197513)
(1.31875 -0.660853 0.00114275)
(1.33858 -0.653382 -0.0912651)
(1.49154 -0.750647 0.0377197)
(0.761251 -0.304419 0.0648311)
(1.47046 -1.06181 -0.00536448)
(1.10758 -0.96106 0.313631)
(1.44921 -0.843605 -0.0652399)
(1.65418 -0.99697 0.173196)
(1.1992 -0.685271 -0.0173193)
(1.40974 -0.720933 -0.0508804)
(1.33517 -0.883895 0.0607692)
(1.03701 -0.729864 0.0500276)
(2.05665 -1.05637 -0.124038)
(1.19401 -0.811849 0.0352231)
(1.42603 -0.841865 -0.127459)
(1.46827 -0.914769 0.0679076)
(1.79406 -0.782244 -0.035216)
(1.34814 -0.716054 0.0769014)
(1.09202 -0.656114 0.139249)
(1.62127 -0.857014 -0.0153101)
(1.92203 -0.912946 -0.245605)
(1.5527 -0.753904 0.0371066)
(1.07907 -0.638586 -0.0373722)
(1.82263 -1.01979 0.162623)
(1.53846 -0.824848 0.0267597)
(1.43215 -0.661261 -0.256805)
(1.61328 -0.801071 0.0864114)
(1.82233 -0.956231 0.0792426)
(1.11671 -0.728179 -0.023311)
(0.763782 -0.394688 -0.00679031)
(1.44965 -0.9316 -0.0775856)
(1.1717 -0.551138 0.0306662)
(1.65962 -0.913821 -0.0735964)
(1.44407 -0.681449 0.0536225)
(1.50484 -0.87586 0.0385287)
(0.982052 -0.495369 -0.0595463)
(1.51383 -0.722107 0.0463239)
(1.33536 -0.669891 -0.0725385)
(1.55972 -1.02325 0.0548122)
(1.56837 -0.657185 -0.0629551)
(1.17017 -1.23036 0.0660244)
(1.71485 -1.02088 0.0540064)
(1.70945 -1.10131 0.120233)
(1.49288 -0.937753 -0.015743)
(1.59288 -0.797956 -0.18257)
(1.38626 -0.738944 -0.0177884)
(0.472056 -0.384904 -0.0382075)
(1.33324 -0.690952 -0.155759)
(1.00754 -0.53076 0.00933319)
(1.54535 -0.870505 -0.167279)
(1.42607 -0.86471 -0.0524672)
(1.15073 -0.474344 0.11828)
(0.898975 -0.572904 -0.148571)
(1.57284 -1.04155 -0.0966224)
(1.20054 -0.754068 0.0307676)
(1.21114 -0.741315 -0.0691421)
(1.42625 -0.760557 -0.0872507)
(1.04195 -0.695166 -0.167861)
(1.49403 -0.807736 0.0145671)
(0.759058 -0.443854 -0.0922241)
(1.02899 -0.640308 -0.0153661)
(1.9174 -0.90388 0.0351392)
(1.48468 -0.799556 -0.0176629)
(1.66742 -0.683128 -0.115674)
(2.06736 -1.1618 -0.141071)
(1.83028 -0.783369 -0.143809)
(0.917741 -0.628974 -0.0847524)
(1.54706 -0.827346 -0.0395471)
(1.10605 -0.426211 -0.0819476)
(1.199 -0.768918 -0.158379)
(1.41158 -0.797746 0.0519771)
(1.86006 -1.01327 0.0252911)
(1.60996 -0.840843 -0.0575687)
(1.37641 -0.84357 -0.00803412)
(1.2405 -0.77701 -0.123488)
(1.03621 -0.491692 -0.0011446)
(0.991939 -0.824694 0.0314572)
(1.55394 -1.12179 0.113876)
(1.26394 -0.720725 0.0839989)
(1.92604 -1.29417 -0.152278)
(1.26644 -0.846522 0.184225)
(1.90085 -1.1412 0.0754671)
(1.76448 -1.12356 0.0212665)
(1.10677 -0.660574 -0.114772)
(1.74875 -0.877668 -0.0278443)
(1.26638 -0.669682 -0.0277411)
(0.883908 -0.506561 0.0156614)
(1.58595 -1.03609 0.00104895)
(1.61279 -0.755093 0.158714)
(1.5688 -0.816719 -0.0436669)
(2.07577 -0.993479 0.090292)
(1.04582 -0.490386 0.0601863)
(1.72927 -1.0078 0.242196)
(1.14259 -0.889348 -0.0253116)
(1.1195 -0.544484 0.0293973)
(1.2533 -0.596095 -0.148772)
(1.36335 -1.05717 -0.0933874)
(0.981073 -0.508487 -0.110177)
(1.41328 -0.934169 -0.0879873)
(1.39053 -0.733679 0.00170835)
(1.40502 -0.849236 -0.0117813)
(1.20538 -0.602464 -0.0604109)
(1.50168 -0.969492 -0.071924)
(1.98022 -0.943436 0.0173205)
(0.899748 -0.548524 -0.00894001)
(1.30453 -0.811357 -0.0819093)
(1.6174 -0.818661 0.0885819)
(1.75392 -1.00485 0.135769)
(1.34807 -0.659581 -0.0782054)
(1.41072 -0.692421 0.00307984)
(0.975404 -0.457048 -0.0515598)
(1.44659 -0.687834 0.066237)
(1.21757 -1.32227 0.102167)
(1.42461 -1.00724 -0.0703582)
(1.15653 -0.626547 -0.0658097)
(1.6422 -0.983951 0.0559269)
(1.28116 -0.731551 0.0942345)
(1.33929 -0.812548 -0.0462429)
(1.20464 -0.640926 0.133568)
(1.31263 -0.804257 0.0196033)
(1.20066 -0.671678 -0.049874)
(1.39625 -0.722011 -0.0987975)
(1.47115 -0.742237 -0.096975)
(1.01634 -0.629364 0.0873246)
(1.36909 -0.811953 -0.0381175)
(1.80138 -0.948137 0.0337056)
(1.07068 -0.528713 -0.00995187)
(1.84194 -1.05435 0.018233)
(1.15323 -0.448727 -0.0799342)
(0.960152 -0.639468 0.107035)
(0.991019 -0.537644 0.0486656)
(1.88747 -1.11051 0.0270387)
(1.51623 -0.551111 0.0304558)
(1.06812 -0.586184 0.0748186)
(1.29512 -0.676814 0.0416843)
(1.78961 -1.05401 0.0475843)
(1.35204 -0.673744 0.0595085)
(1.22042 -0.709358 -0.00980685)
(1.36114 -0.541814 -0.0507465)
(1.95491 -1.17572 0.0412445)
(1.13826 -0.667502 0.075328)
(1.31901 -0.824271 -0.0867863)
(1.56165 -0.737549 0.151198)
(1.14761 -0.812971 -0.175736)
(1.64704 -0.987598 -0.111298)
(1.30245 -0.695299 -0.0255013)
(1.06801 -0.574572 -0.0360538)
(0.992898 -0.441729 -0.0113477)
(1.35677 -0.992537 0.0620743)
(1.94374 -1.24807 -0.13837)
(1.11997 -0.745955 -0.0509924)
(1.20149 -0.82583 -0.00839113)
(0.855302 -0.552935 -0.0442251)
(0.903878 -0.676721 0.059911)
(1.26731 -0.71108 0.0580594)
(1.12221 -0.643061 -0.0448208)
(1.22118 -0.663414 0.0929222)
(0.933296 -0.643001 0.103032)
(1.38536 -0.76068 0.0780762)
(1.11234 -0.578707 0.0728617)
(1.55519 -0.951237 -0.0544776)
(1.04387 -0.699358 -0.0400043)
(0.995114 -0.654527 -0.00202508)
(1.21783 -0.583854 -0.0584108)
(1.28734 -0.832151 -0.0857027)
(1.43442 -0.74717 -0.0350186)
(1.76025 -1.07885 0.0555972)
(1.39316 -0.714128 0.106569)
(1.47455 -0.784115 -0.0438434)
(1.3294 -0.805568 -0.0698741)
(1.15971 -0.62652 -0.0243683)
(1.59882 -0.936979 0.306179)
(1.46971 -0.780474 0.134885)
(1.25346 -0.662826 -0.0917311)
(1.06841 -0.659211 -0.113272)
(1.37604 -0.684877 -0.0845306)
(1.53506 -1.1275 0.0173455)
(1.40044 -0.84981 -0.0503781)
(2.02609 -1.33961 0.182952)
(0.961814 -0.517597 0.0687847)
(1.5997 -0.737762 -0.0415199)
(1.4815 -0.883873 -0.0969673)
(1.25014 -0.579472 -0.0991899)
(1.29322 -0.649811 -0.141596)
(0.98605 -1.13545 0.113813)
(2.39979 -1.56689 0.107353)
(1.96716 -1.15196 0.0384879)
(0.979877 -0.750841 -0.00395647)
(1.84568 -1.00609 0.00735219)
(1.55724 -0.995536 0.144653)
(1.17509 -0.547572 -0.000154097)
(1.09423 -0.593555 -0.174911)
(1.3855 -0.862045 -0.0854469)
(1.43764 -0.759926 0.134274)
(1.26984 -0.735733 -0.0526923)
(1.03131 -0.555099 -0.0263609)
(1.34902 -0.709293 -0.00905139)
(1.19023 -0.600578 -0.0228009)
(2.15527 -1.23519 0.207522)
(1.3608 -0.786352 0.0695281)
(1.21503 -0.797895 -0.0863331)
(1.37279 -0.776905 0.0143794)
(0.930773 -0.494512 -0.0759502)
(1.70311 -0.865614 -0.00387959)
(1.26667 -0.772862 -0.0632648)
(1.16977 -0.785505 -0.0590815)
(1.14071 -0.61609 -0.165067)
(1.31618 -0.590786 0.162083)
(1.32271 -0.751804 -0.0784166)
(1.59809 -0.860409 -0.263575)
(1.66854 -0.853068 -0.0464865)
(1.09638 -0.749068 0.075645)
(1.22942 -0.608502 -0.102366)
(1.43038 -0.772177 -0.192644)
(1.16198 -0.608346 -0.123257)
(0.872403 -0.689134 0.0601743)
(0.975573 -0.592236 0.113621)
(0.882785 -0.501915 -0.202661)
(1.46139 -0.779588 0.00610996)
(1.3886 -0.747481 0.224264)
(0.956219 -0.699683 -0.0922577)
(1.40864 -1.11314 0.0722784)
(1.46562 -0.999284 0.0511942)
(1.37828 -0.919433 0.179801)
(1.38337 -0.952335 0.152512)
(1.26721 -0.719348 0.0719558)
(1.7559 -0.985885 0.169971)
(1.34286 -0.840419 0.0333181)
(1.77127 -0.844328 0.0350105)
(0.856075 -0.412665 -0.0403263)
(1.53183 -0.883499 -0.149444)
(1.85578 -1.01508 0.0171689)
(1.48675 -0.771181 0.0216677)
(1.21482 -0.756536 -0.0263227)
(1.15177 -0.699096 0.061314)
(1.29707 -0.999919 -0.0987745)
(1.61652 -0.905411 0.0676255)
(1.47387 -0.826589 -0.0174944)
(1.30541 -0.678759 -0.140091)
(1.66368 -0.877454 0.149326)
(2.08239 -1.03285 -0.0435079)
(1.70051 -0.838559 0.0255657)
(1.11667 -0.683842 0.00571448)
(1.55029 -0.840369 0.192672)
(1.26549 -0.711944 0.0704144)
(1.22318 -0.58136 0.00130554)
(0.829218 -0.505128 -0.0576942)
(1.03556 -0.611857 0.0639409)
(1.33807 -0.640967 -0.0944168)
(0.992782 -0.504486 -0.243829)
(1.254 -0.814781 0.137364)
(1.56729 -0.87659 0.0110459)
(0.931732 -0.490664 0.107042)
(0.930116 -0.512733 -0.0265902)
(0.953485 -0.465148 -0.0446538)
(1.20416 -0.70897 -0.0150028)
(0.589351 -0.806569 0.218261)
(1.04727 -0.991243 0.0968464)
(1.63342 -1.12797 0.00940266)
(1.2547 -0.820033 0.092645)
(1.40498 -0.844858 0.215533)
(1.73476 -0.762695 -0.00959655)
(0.598446 -0.358861 -0.0478517)
(0.681817 -0.492368 -0.0550381)
(0.792464 -0.400857 0.0196427)
(1.13494 -0.632393 0.073267)
(1.54639 -0.78741 0.0444368)
(1.36196 -0.870037 -0.0848054)
(1.41968 -0.826784 -0.082135)
(0.925461 -0.506149 -0.117415)
(1.50887 -0.813154 0.257109)
(1.18466 -0.636873 0.0279088)
(0.974594 -0.631526 0.162117)
(1.28026 -0.67868 0.0640275)
(1.33874 -0.734107 0.0707688)
(1.28673 -0.71021 -0.0284447)
(1.23238 -0.552536 0.130743)
(1.44305 -0.736493 0.0842098)
(1.2711 -0.70525 0.0322659)
(0.91453 -0.653493 0.0694861)
(1.34994 -0.813223 0.0784136)
(1.71804 -0.92559 0.152041)
(1.71748 -0.923348 0.048958)
(1.14949 -0.651068 0.201155)
(1.36903 -0.759045 -0.123338)
(1.36343 -0.552582 0.0589306)
(1.22634 -0.643012 0.235476)
(1.2067 -0.646302 -0.00866459)
(0.732129 -0.641519 0.0809939)
(1.22534 -0.556843 -0.0311882)
(0.945615 -0.505997 0.0236313)
(1.30176 -0.586531 -0.113773)
(1.1588 -0.846096 -0.029153)
(2.14994 -1.26276 -0.198979)
(1.51415 -1.1006 0.0829125)
(1.44401 -0.899494 -0.114033)
(1.00282 -0.733155 0.0536341)
(1.78106 -1.11291 0.0390689)
(1.48284 -0.850917 0.00267692)
(1.40948 -0.875258 -0.0272361)
(1.44153 -0.834641 0.216515)
(1.92603 -0.997471 0.0991733)
(1.13776 -0.635856 0.0651814)
(1.38605 -0.801566 -0.065631)
(1.41487 -0.721177 -0.041074)
(1.86679 -0.979457 -0.0190253)
(1.22776 -0.716326 0.0935811)
(1.48676 -0.692801 0.0116914)
(1.10417 -0.574788 -0.0569924)
(1.47663 -0.983012 -0.0630066)
(1.08401 -0.587651 -0.103994)
(1.63144 -0.876293 -0.00428268)
(1.34072 -0.922946 -0.137303)
(1.45125 -0.889747 -0.0384622)
(0.816386 -0.429667 -0.115445)
(1.37107 -0.949692 -0.0428104)
(1.14819 -0.55365 0.00504788)
(1.54856 -0.977902 0.0905605)
(1.04013 -0.653161 -0.117701)
(1.3796 -0.747969 -0.0584817)
(1.30283 -0.581308 -0.0386412)
(1.09466 -0.590899 0.0379818)
(2.05263 -1.1852 -0.0713591)
(1.25203 -0.889454 0.074916)
(1.3977 -0.696354 -0.0353332)
(1.69776 -0.756061 -0.0127751)
(1.38592 -0.805245 0.106329)
(0.852885 -0.501028 0.087244)
(0.978086 -0.792952 0.264112)
(1.29694 -0.854669 0.0102383)
(1.83372 -1.21745 0.176835)
(1.09539 -0.719824 -0.0993097)
(1.1201 -0.499805 -0.0399403)
(1.19886 -0.706532 0.0265724)
(0.834356 -0.5187 0.0094047)
(1.34696 -0.720678 0.00841114)
(1.18677 -0.62744 0.0725456)
(1.76351 -0.870653 0.205891)
(1.41921 -0.726472 -0.00169218)
(1.05163 -0.587016 -0.0482397)
(1.70471 -0.957512 0.0401925)
(1.85018 -0.905945 0.148734)
(1.329 -0.619671 0.148548)
(1.44252 -0.804853 0.0132487)
(1.14422 -0.606515 0.0122192)
(1.69549 -0.829712 0.0712672)
(0.888392 -0.528209 -0.0254865)
(1.23386 -0.486342 0.124448)
(1.07698 -0.612425 0.0478972)
(1.08394 -0.59803 0.104209)
(0.931424 -0.522579 0.0458072)
(2.15255 -1.00605 0.109536)
(1.57385 -0.822402 0.109382)
(0.742812 -0.558017 -0.0472132)
(1.34222 -0.871834 -0.171712)
(1.05287 -0.646147 -0.0680377)
(1.37675 -0.648158 -0.0210228)
(1.01236 -0.434709 0.0472958)
(1.11086 -0.646086 -0.0226527)
(1.30721 -0.651366 -0.210099)
(1.58768 -0.796314 -0.0476389)
(1.5192 -0.871557 -0.115019)
(1.52873 -0.693596 0.16906)
(1.36107 -0.695243 -0.00644478)
(0.463709 -0.60106 0.29384)
(1.06127 -0.780181 0.189653)
(0.944155 -0.641392 -0.0115988)
(1.18994 -0.589666 -0.0636665)
(1.29925 -0.817382 0.219154)
(1.06514 -0.522924 -0.0698751)
(0.848552 -0.563696 -0.147011)
(1.30337 -0.768316 0.0881202)
(0.809231 -0.498369 -0.0515904)
(1.86585 -1.08313 0.0567599)
(1.19789 -0.530632 -0.0803167)
(1.28586 -0.754027 -0.00515157)
(0.918131 -0.689732 0.0606159)
(1.42028 -0.720014 0.114043)
(1.07379 -0.704839 0.0307979)
(1.44828 -0.873022 -0.122613)
(1.28009 -0.73141 0.0674669)
(1.20334 -0.619258 0.124046)
(1.20065 -0.611027 -0.0963327)
(0.863511 -0.451582 -0.0804916)
(1.42014 -0.700525 0.218761)
(1.16884 -0.628513 0.169411)
(1.21199 -0.701151 0.0174198)
(1.22854 -0.84034 -0.0936448)
(1.50062 -0.869981 0.100925)
(1.41537 -0.625469 -0.0175582)
(1.10671 -0.67336 -0.0469714)
(1.40128 -0.762463 -0.0744895)
(1.26853 -0.788799 -0.000674327)
(1.46055 -0.917055 0.000613905)
(1.36744 -0.692468 -0.000703098)
(1.4389 -0.770655 0.127181)
(0.822134 -0.428109 0.056616)
(1.31846 -0.826432 -0.0684797)
(1.17513 -0.779711 0.164124)
(1.45515 -0.746807 0.124297)
(1.24418 -0.974401 -0.0389049)
(1.1596 -0.901398 -0.0382005)
(0.930998 -0.642892 0.139911)
(0.71401 -0.567977 0.0711874)
(1.42011 -0.809094 0.101555)
(1.1014 -0.492188 -0.103017)
(1.11043 -0.706013 0.0741909)
(1.43918 -0.758006 0.0509399)
(1.27698 -0.755304 0.0924383)
(0.755197 -0.520912 -0.132477)
(0.986674 -0.664237 0.139805)
(1.36768 -0.78027 0.203056)
(1.56203 -0.935271 -0.0115541)
(1.87509 -0.904259 0.0455141)
(1.47692 -0.8867 0.0397715)
(1.04993 -0.57059 0.0617144)
(1.43129 -0.721667 -0.0233465)
(1.50581 -1.02867 -0.119196)
(1.75825 -0.698241 0.0207613)
(1.44399 -0.817827 -0.0391449)
(1.33406 -0.894303 0.121796)
(1.63515 -0.840748 -0.0720964)
(1.30243 -0.720346 -0.0219197)
(1.26082 -0.655252 0.149611)
(1.98977 -1.28295 -0.0599445)
(1.51827 -0.870194 -0.156116)
(1.31796 -0.531763 -0.0625925)
(1.0316 -0.466816 0.00579997)
(1.66271 -0.9242 -0.0787801)
(1.01305 -0.554732 -0.0295695)
(1.53953 -0.830359 -0.035194)
(0.644378 -0.405344 0.0289879)
(1.1548 -0.745098 -0.0695595)
(1.3238 -0.68756 0.205879)
(1.54262 -0.797936 0.0841822)
(0.798863 -0.422938 0.0449824)
(0.859679 -0.815379 0.0277831)
(0.890712 -0.677156 0.103992)
(1.06507 -0.818782 -0.0976139)
(1.6391 -1.31653 0.156152)
(1.13698 -0.657716 0.143016)
(1.23164 -0.741043 0.030062)
(0.476331 -0.393446 -0.00887262)
(1.63383 -0.838811 0.0738635)
(1.17155 -0.59794 -0.0598486)
(1.41887 -0.652087 0.0267201)
(1.03597 -0.51213 -0.000886691)
(1.14211 -0.870069 -0.0603121)
(1.03851 -0.6425 -0.0478795)
(1.292 -0.609828 -0.121034)
(0.951907 -0.483733 0.0151522)
(1.15586 -0.664807 0.0402576)
(0.996698 -0.596673 -0.0499657)
(1.31395 -0.723544 -0.052072)
(1.35468 -0.742879 0.128411)
(1.09907 -0.662354 -0.115603)
(1.31756 -0.785833 -0.074705)
(0.728567 -0.474312 -0.0588462)
(1.41194 -0.863442 0.080549)
(1.47032 -0.855178 0.0295945)
(1.23092 -0.727849 -0.0398994)
(1.5307 -0.86942 -0.0318527)
(1.08287 -0.552525 -0.097846)
(1.14787 -0.663372 0.0593254)
(1.51175 -0.737232 -0.0852779)
(0.441489 -0.266002 -0.0519171)
(0.971329 -0.496399 0.0325128)
(1.20732 -0.676358 -0.0271215)
(0.671755 -0.450975 -0.0977787)
(1.51318 -0.848526 0.115922)
(1.66675 -0.835203 0.129651)
(0.828937 -0.380345 0.0662889)
(1.02955 -1.18928 -0.0814402)
(1.39427 -1.09191 0.153874)
(1.54118 -0.909731 -0.0112404)
(2.2236 -1.2494 0.0850021)
(1.29531 -0.764252 0.123295)
(1.20065 -0.974294 -0.00435195)
(1.32843 -0.720335 -0.0377452)
(2.04995 -1.08276 -0.0436012)
(1.95832 -1.08788 0.145315)
(1.59082 -0.75362 0.11708)
(1.65877 -0.905999 -0.0334483)
(1.69706 -0.878746 -0.0592675)
(1.24862 -0.664973 0.0138079)
(1.06258 -0.614424 -0.0502155)
(1.37743 -0.623531 -0.0491681)
(1.95823 -0.908358 0.0437222)
(1.02025 -0.634081 -0.069363)
(1.49812 -0.919736 -0.0507934)
(1.37309 -0.88092 0.0117315)
(1.21117 -0.735996 0.0219295)
(1.15977 -0.702635 -0.0950536)
(1.35909 -0.757107 -0.144452)
(1.51168 -0.879265 0.000623032)
(1.99147 -1.09952 0.0231046)
(1.34832 -0.770251 0.0571725)
(0.80141 -0.397212 -0.000683626)
(1.26069 -0.715291 0.101681)
(1.52998 -0.816743 0.0536499)
(1.44749 -0.860285 0.140762)
(1.5506 -0.767608 0.0240234)
(0.91753 -0.50073 0.162711)
(1.21035 -0.56954 0.00787615)
(1.2557 -0.703051 -0.0229511)
(1.09527 -0.69913 -0.07963)
(0.83143 -0.508858 -0.0785563)
(1.51298 -0.764963 0.0438271)
(1.72015 -1.30395 0.0177767)
(1.09739 -0.981752 0.211793)
(0.921825 -0.558871 0.0902956)
(1.24879 -0.791681 0.132364)
(1.50193 -1.06351 0.224854)
(0.986443 -0.630919 0.0583174)
(1.11892 -0.798756 -0.1477)
(0.836988 -0.531613 0.0967638)
(1.16926 -0.719851 0.0241346)
(1.44486 -0.852983 -0.133668)
(1.1455 -0.499561 -0.063836)
(1.05716 -0.535294 0.0312327)
(0.939413 -0.548627 -0.0623998)
(0.865854 -0.539902 -0.00169481)
(0.947987 -0.593036 -0.0586778)
(1.56415 -0.883169 -0.121046)
(1.8533 -1.08131 0.211506)
(1.61003 -0.80347 0.0283963)
(0.709062 -0.494792 0.114547)
(1.09354 -0.466232 0.0665709)
(0.670423 -0.433217 0.0502064)
(1.47539 -0.774157 -0.116785)
(1.1971 -0.684312 -0.0970176)
(0.933013 -0.51916 -0.0876029)
(1.49179 -0.765553 -0.0501236)
(1.42172 -0.822996 0.0299469)
(1.31749 -0.727835 -0.0205919)
(1.51064 -0.990443 -0.0345919)
(1.58772 -0.838631 -0.0028259)
(1.17458 -0.813034 -0.00303041)
(1.44741 -0.781349 -0.0716708)
(1.42951 -0.670131 -0.0725046)
(1.42605 -0.773064 0.0892992)
(0.935663 -0.539918 0.0544962)
(1.54029 -0.783987 -0.0898799)
(1.34168 -0.69117 0.0512116)
(0.892031 -0.708127 0.174428)
(1.45417 -1.18882 -0.00244658)
(0.79056 -0.584324 -0.00196748)
(1.29778 -0.637208 0.0206618)
(1.72719 -0.896366 -0.06354)
(1.65475 -0.974603 0.0445997)
(2.02058 -1.32312 -0.227096)
(0.805341 -0.446019 0.0601385)
(1.34065 -0.667064 0.12565)
(0.964199 -0.576408 -0.0633881)
(1.25658 -0.675783 0.0784499)
(1.1595 -0.618351 0.0279633)
(1.10899 -0.64455 0.0642402)
(0.753051 -0.395605 0.00397003)
(1.22528 -0.667732 -0.0389409)
(0.79854 -0.45511 -0.0280805)
(1.099 -0.647105 0.0415676)
(1.03193 -0.502609 -0.0728102)
(1.56387 -0.992452 -0.207602)
(1.06291 -0.534056 -0.0602088)
(1.10058 -0.674814 -0.046466)
(1.24168 -0.576329 -0.0472453)
(1.08109 -0.663904 -0.0701941)
(1.32185 -0.857461 -0.0409177)
(1.47574 -0.793574 -0.0624582)
(0.997262 -0.535126 0.0284214)
(1.52279 -0.769532 -0.14456)
(1.42284 -0.810996 0.0664333)
(1.55395 -0.821428 0.0684232)
(1.30298 -0.550974 0.0948918)
(1.06641 -0.776069 -0.0415247)
(1.43718 -0.666545 0.0244436)
(1.41568 -0.702797 -0.0366182)
(1.58182 -0.825779 -0.0235819)
(0.980064 -0.517294 -0.0515247)
(1.1062 -0.50899 0.0088234)
(1.11207 -1.3423 0.0508891)
(0.553931 -0.478249 0.107723)
(1.20506 -0.780364 0.0550941)
(1.34536 -0.941664 0.0700046)
(1.10383 -0.75131 -0.00428037)
(1.66502 -0.799515 0.0885939)
(1.45675 -0.921012 0.213387)
(1.85549 -1.01374 0.0277383)
(1.35501 -0.796592 0.229429)
(1.60624 -0.796465 -0.0318686)
(0.992136 -0.575886 0.0268895)
(1.01545 -0.626161 -0.0736877)
(1.14901 -0.621853 0.0502255)
(0.836397 -0.550546 -0.0673047)
(1.33617 -0.919493 -0.0601974)
(1.114 -0.757877 -0.00864496)
(0.854042 -0.424697 0.106877)
(1.05954 -0.589678 -0.00133306)
(1.21176 -0.549271 -0.0406312)
(0.787263 -0.62747 -0.0592064)
(1.10922 -0.57139 0.0951923)
(1.49971 -0.780487 0.0593254)
(1.09507 -0.594832 0.0647082)
(0.809177 -0.508345 -0.081606)
(1.24864 -0.741395 -0.107501)
(1.44679 -0.721657 0.0936033)
(1.68335 -0.773506 0.112507)
(1.47919 -0.773688 -0.00712498)
(1.20576 -0.574921 0.038212)
(1.71482 -0.965134 -0.0682748)
(1.56122 -1.00429 -0.144436)
(1.02034 -0.552487 -0.0505996)
(0.880212 -0.526992 -0.161647)
(1.75877 -0.935665 -0.00712027)
(1.55739 -0.817554 -0.050134)
(1.26253 -0.702735 -0.0108755)
(0.718007 -0.936877 0.227184)
(1.3684 -0.707518 0.00392106)
(1.29309 -0.746511 0.114941)
(1.44917 -0.954626 0.0998503)
(1.22819 -0.78795 0.142996)
(1.56808 -0.870779 0.14474)
(0.810064 -0.551157 -0.158974)
(1.43353 -0.826198 -0.0170371)
(1.39659 -0.753697 -0.109974)
(0.879637 -0.464509 0.240636)
(1.33824 -0.552507 -0.0886383)
(0.941691 -0.631959 -0.097979)
(1.19646 -0.450501 -0.0697481)
(1.44728 -0.812477 0.00577054)
(1.03981 -0.507629 0.171072)
(1.40187 -0.768389 0.128332)
(1.43171 -0.872032 0.21118)
(1.78923 -1.00773 -0.0891238)
(1.27776 -0.886683 0.120789)
(1.26721 -0.91123 0.102776)
(0.875885 -0.504082 -0.0871118)
(1.65622 -0.819613 -0.0391763)
(2.04946 -1.10908 0.0928687)
(1.3692 -0.653582 0.118764)
(1.30118 -0.721372 0.0756586)
(1.51039 -0.783322 0.207307)
(1.10178 -0.53358 0.0838399)
(1.05825 -0.648408 0.0781748)
(1.17182 -0.586064 0.0758621)
(1.10035 -0.61221 0.041824)
(1.21333 -0.686869 0.0411034)
(1.4132 -0.924155 -0.0686662)
(1.23643 -0.559307 0.00839637)
(0.593173 -0.352201 0.00930025)
(1.54488 -0.725683 -0.03014)
(0.937398 -0.511206 0.0501677)
(1.023 -1.00799 0.017272)
(1.02117 -0.750316 0.0428714)
(1.67298 -1.04419 0.201)
(0.846855 -0.55536 -0.0194835)
(0.887373 -0.545212 -0.00248637)
(1.27537 -0.75447 0.0438862)
(1.38018 -0.864458 -0.0602111)
(1.01344 -0.517823 0.167093)
(1.26258 -0.791538 -0.108709)
(1.48364 -0.787113 -0.168412)
(1.97453 -1.11833 0.118248)
(1.55382 -0.668503 -0.0653231)
(0.927649 -0.537233 0.0596229)
(1.47641 -0.732439 0.15187)
(1.08988 -0.64937 -0.0663953)
(1.21457 -0.799038 -0.0798575)
(0.779566 -0.670976 0.0379911)
(1.78566 -1.0257 -0.124618)
(1.37507 -0.818184 0.0486667)
(1.06449 -0.712048 0.00573432)
(1.56507 -0.73228 -0.095799)
(1.53436 -0.721331 0.0815258)
(1.53896 -0.809148 0.0503212)
(1.09061 -0.580287 -0.151556)
(0.984223 -0.55549 -0.139059)
(1.14928 -0.569442 -0.0264088)
(1.54318 -0.89635 0.0109811)
(1.61513 -0.765439 0.0792562)
(1.41624 -0.921165 -0.0131414)
(1.27649 -0.679423 0.0877811)
(0.684958 -0.482971 0.0250075)
(1.33319 -0.681411 -0.10716)
(0.957649 -0.654209 -0.0374451)
(1.37489 -0.717464 0.0553526)
(1.00159 -0.598684 -0.0659109)
(1.61926 -0.972989 -0.0145801)
(0.68365 -0.635608 -0.059473)
(1.02832 -1.11306 0.101419)
(1.36944 -0.974576 0.0547496)
(1.39563 -0.872179 -0.0299802)
(1.16974 -0.719024 -0.0633946)
(1.31544 -0.819542 0.101893)
(0.979447 -0.518247 0.0827279)
(1.45382 -0.698546 0.0897251)
(1.59437 -0.86308 -0.0131699)
(1.53118 -0.933514 0.260901)
(1.18069 -0.720418 -0.0589067)
(1.37718 -0.686526 -0.0643288)
(1.03266 -0.506233 -0.032964)
(1.46179 -0.742387 0.0103671)
(0.771112 -0.580907 -0.110781)
(1.21881 -0.830159 0.00913912)
(1.32475 -0.783153 0.00726272)
(1.11201 -0.536888 -0.0246223)
(1.26895 -0.786976 -0.0737471)
(1.51349 -0.790787 -0.1173)
(1.39026 -0.683746 -0.19587)
(1.34433 -0.622113 0.0519745)
(0.980869 -0.605957 -0.0632123)
(1.63082 -0.897073 0.049678)
(0.830158 -0.526456 -0.057214)
(0.761471 -0.474477 0.0532039)
(0.737007 -0.394522 -0.100191)
(1.1699 -0.731959 -0.11583)
(1.35522 -0.69909 -0.0695654)
(0.786491 -0.462629 -0.0191783)
(1.61911 -0.890767 0.0773072)
(1.38375 -0.69401 -0.083655)
(1.43911 -0.746473 0.0944177)
(0.51815 -0.436261 -0.0693342)
(1.57289 -0.778239 0.106267)
(1.37669 -0.698443 0.0766101)
(0.774568 -0.935376 0.011166)
(1.23048 -1.06938 0.0631501)
(1.19259 -0.861249 0.0784946)
(1.02093 -0.922467 0.0873627)
(1.19126 -0.658678 0.0647074)
(1.61734 -0.93196 0.172536)
(1.43134 -0.852055 0.00498003)
(0.87382 -0.603531 -0.0493868)
(1.30911 -0.80128 -0.063974)
(1.77325 -1.0027 -0.0330132)
(1.1243 -0.747327 0.0773597)
(1.19805 -0.658853 0.0725934)
(1.33902 -0.654983 -0.0502307)
(1.09522 -0.656828 -0.0639211)
(1.1654 -0.574931 -0.037103)
(1.53147 -0.813965 0.149509)
(1.44383 -0.581852 -0.0280869)
(0.974912 -0.54536 -0.10283)
(1.14747 -0.591711 0.000541046)
(1.27572 -0.587341 0.0381814)
(1.62925 -0.958322 -0.0278179)
(1.82004 -1.02749 0.154199)
(1.42594 -0.814022 -0.0270508)
(1.3413 -0.676522 -0.0282825)
(0.92478 -0.516507 0.0708545)
(0.923012 -0.518394 0.0224818)
(1.31845 -0.77764 -0.0160083)
(1.17588 -0.643268 0.016334)
(1.44267 -0.839617 0.00169976)
(1.19052 -0.770872 0.0716881)
(1.58245 -0.877357 -0.0415624)
(1.76111 -0.89058 0.0704609)
(1.2291 -0.632192 -0.017569)
(1.39582 -0.674499 0.0202972)
(1.50224 -0.902573 0.0273291)
(1.34584 -0.761308 0.130387)
(1.11062 -0.984128 -0.0125766)
(0.889228 -0.8491 -0.00758371)
(1.48424 -0.955286 -0.026872)
(0.965071 -0.684033 -0.0334371)
(1.28142 -0.768205 0.1009)
(1.16862 -0.670173 0.00607266)
(2.00175 -1.01839 0.160635)
(0.755741 -0.403434 -0.0223274)
(0.58445 -0.370641 -0.024789)
(1.37542 -0.820159 0.0992941)
(1.09744 -0.617851 -0.0831116)
(1.03281 -0.56878 -0.00569439)
(1.38033 -0.669337 0.1437)
(0.799802 -0.34144 -0.10186)
(1.82706 -1.06602 -0.0515712)
(1.07718 -0.629286 0.066875)
(1.08688 -0.549789 -0.0188884)
(1.02713 -0.559674 -0.00396101)
(1.10082 -0.656305 0.0129446)
(1.16262 -0.80653 -0.0476772)
(1.62337 -0.745922 -0.141514)
(0.612514 -0.396058 0.0296621)
(1.05917 -0.595984 0.0389163)
(1.25398 -0.71617 -0.107225)
(1.73483 -1.08861 0.0228663)
(1.14189 -0.664839 0.0239349)
(1.20343 -0.547594 0.0169181)
(1.01883 -0.526088 -0.0468404)
(1.00865 -0.636691 -0.0310425)
(1.46205 -0.803888 0.0600188)
(1.1264 -0.609609 -0.0209518)
(1.80802 -0.881827 0.143868)
(1.46551 -0.869387 -0.0212571)
(1.35238 -0.652709 0.0875739)
(1.34424 -0.818065 -0.00572684)
(1.59376 -0.865842 -0.0867004)
(1.42622 -1.02133 0.16764)
(0.541797 -0.47586 -0.0260263)
(1.12523 -0.8596 0.140764)
(1.89188 -1.06359 0.092594)
(1.46804 -0.979989 -0.122407)
(0.828925 -0.455733 -0.0690957)
(1.77456 -0.93585 -0.121675)
(1.17303 -0.642138 0.0838057)
(1.48901 -0.797535 0.0916958)
(1.513 -0.66563 -0.115601)
(1.28636 -0.683988 -0.0547927)
(1.74673 -0.841563 -0.096357)
(1.30757 -0.758565 0.0327442)
(1.44412 -0.634397 0.251034)
(1.00461 -0.501641 0.0330892)
(1.33917 -0.783572 -0.0375333)
(1.24284 -0.674374 0.0111158)
(0.901315 -0.511151 -0.0402129)
(1.39098 -0.731929 0.0133268)
(1.19113 -0.623832 0.00683588)
(0.992823 -0.5734 -0.102272)
(1.43735 -0.757087 -0.106422)
(1.36692 -0.708407 -0.00521574)
(1.31669 -0.940711 0.0340304)
(1.02007 -0.510771 0.0188432)
(1.24525 -0.817182 0.0748312)
(1.36677 -0.786679 0.000540922)
(0.798818 -0.463137 -0.0266595)
(0.883952 -0.4327 -0.0711122)
(1.36037 -0.820311 0.0342617)
(1.4214 -0.793669 -0.0320483)
(0.843118 -0.492134 0.0755362)
(1.08622 -0.673783 0.131286)
(0.983143 -0.467711 0.0803169)
(0.906307 -0.463167 0.0484262)
(1.26764 -0.607273 0.0715759)
(1.1218 -1.08548 0.0505216)
(1.08431 -1.02237 -0.122051)
(1.58668 -0.831204 -0.203474)
(1.63215 -1.14415 0.111544)
(1.30438 -0.904721 0.031055)
(1.34067 -0.859322 0.00541793)
(1.03582 -0.740421 -0.0607604)
(1.34685 -0.805537 0.0148945)
(1.80912 -0.845677 0.0231399)
(1.41726 -0.81175 0.0215816)
(1.56826 -0.822985 0.092545)
(0.928652 -0.485871 0.0611381)
(1.33987 -0.726259 0.0292973)
(1.41837 -0.769258 -0.1007)
(0.970551 -0.628001 -0.0253489)
(1.50117 -0.746675 -0.0849756)
(1.17972 -0.732854 0.0255154)
(1.83188 -0.927636 0.105835)
(1.37893 -0.781227 0.126381)
(1.43386 -0.821549 0.210765)
(1.12825 -0.737325 0.00397463)
(1.34661 -0.727733 -0.138594)
(1.16343 -0.669244 -0.0678465)
(0.827016 -0.555833 0.106226)
(0.972062 -0.539745 -0.116789)
(1.29587 -0.798431 -0.0717611)
(1.01064 -0.594253 -0.0416708)
(1.12764 -0.546141 -0.0147814)
(1.57823 -0.874209 -0.106143)
(1.35582 -0.680633 -0.0281702)
(0.926548 -0.664962 0.101428)
(1.43954 -0.849914 -0.244344)
(1.36747 -0.772486 0.0473013)
(1.37407 -0.758492 0.00283908)
(1.05055 -0.585719 0.00813088)
(1.19383 -0.696239 0.00665745)
(0.544076 -0.820044 0.069124)
(0.920298 -0.732152 -0.000277496)
(0.8206 -0.601443 0.102014)
(1.46367 -1.00697 0.0155674)
(0.673297 -0.508459 0.0784614)
(1.28998 -0.987981 0.0791563)
(1.65815 -0.828209 -0.0194975)
(1.30645 -0.971419 0.0486911)
(1.44521 -0.798513 -0.184903)
(1.25818 -0.618481 0.0810355)
(1.50425 -0.92637 -0.034371)
(1.3953 -0.837041 -0.07555)
(1.32645 -0.647404 -0.042599)
(1.42998 -0.825856 0.124181)
(0.749331 -0.501596 -0.0450847)
(0.773302 -0.524595 0.0409443)
(1.05524 -0.645429 0.0641291)
(1.20853 -0.614652 -0.0999839)
(1.32605 -0.682774 -0.00483412)
(0.794983 -0.511471 -0.0947311)
(1.21483 -0.667682 -0.0500703)
(1.858 -1.15538 -0.0327813)
(1.16832 -0.634993 0.101258)
(1.15037 -0.649526 0.0458337)
(1.23764 -0.734578 0.11645)
(1.04128 -0.440041 0.0324298)
(0.940107 -0.513894 -0.0132033)
(0.697439 -0.581929 -0.124146)
(1.42966 -0.830796 0.0268317)
(1.19942 -0.58412 0.0121721)
(1.80286 -1.05442 0.0700288)
(1.088 -0.52387 0.0344315)
(1.51314 -0.979481 -0.0664616)
(1.15705 -0.548945 -0.109008)
(1.34793 -0.8575 0.0343822)
(1.80352 -0.859799 0.0506463)
(1.09613 -0.815736 -0.0477481)
(1.5005 -1.00903 -0.165693)
(1.60847 -1.1661 -0.0740952)
(2.27497 -1.41751 0.0382595)
(1.10517 -0.6513 -0.103284)
(1.32768 -0.794045 -0.0191806)
(1.25384 -0.79628 -0.0310142)
(1.01291 -0.626798 0.040826)
(1.59425 -0.747516 -0.0604344)
(1.01889 -0.537278 -0.0188514)
(1.58688 -0.772613 0.0348974)
(1.35392 -0.827657 0.0230324)
(1.54879 -0.836557 0.131213)
(1.22411 -0.690407 -0.105902)
(1.15035 -0.628446 0.0148684)
(1.43849 -0.643662 0.136574)
(1.14746 -0.691763 -0.015256)
(1.08177 -0.601239 0.070142)
(1.17943 -0.575164 -0.0061173)
(1.52464 -1.03787 0.159838)
(0.972929 -0.726053 -0.0576393)
(1.32704 -0.665091 -0.0831042)
(1.06369 -0.797504 0.0207213)
(1.0055 -0.704502 0.170639)