/*--------------------------------*- C++ -*----------------------------------*\
| =========                 |                                                 |
| \\      /  F ield         | OpenFOAM: The Open Source CFD Toolbox           |
|  \\    /   O peration     | Version:  2.4.0-MNF                             |
|   \\  /    A nd           | Web:      www.OpenFOAM.org                      |
|    \\/     M anipulation  |                                                 |
\*---------------------------------------------------------------------------*/
FoamFile
{
    version     2.0;
    format      ascii;
    class       volScalarField;
    location    "5e-05";
    object      Ma_Ar;
}
// * * * * * * * * * * * * * * * * * * * * * * * * * * * * * * * * * * * * * //

dimensions      [0 0 0 0 0 0 0];

internalField   nonuniform List<scalar> 
77760
(
5.95323
5.90268
5.5759
5.54883
5.5727
5.81852
5.61638
5.84653
4.48311
2.49086
5.53031
5.44227
5.95168
6.04854
5.96682
6.00465
6.00915
5.45555
4.44658
3.19367
6.01829
6.00125
6.06625
6.08521
6.1315
6.13496
6.05092
5.60569
3.94554
3.89217
6.17553
6.13406
6.01938
6.09562
6.08729
5.90302
5.86869
5.18922
4.82639
4.29394
5.89433
5.97047
6.01163
5.97141
5.84518
5.86753
5.80984
5.13216
4.97512
4.1902
6.1615
6.22864
6.21207
6.26065
6.31217
6.24329
5.47767
4.78811
4.62513
4.61568
6.19985
6.10647
6.09141
6.14957
6.19206
5.61487
6.14786
5.58222
5.51718
4.97334
5.90156
5.99437
6.05661
6.06762
6.14163
6.10478
6.10396
5.98569
5.74849
3.50146
6.03141
5.99105
5.98409
6.03704
6.07939
6.10005
6.08885
5.5483
5.88764
3.38472
5.99899
6.08668
6.11208
6.1381
6.12431
6.08087
6.13313
6.02293
5.07492
3.96455
6.23212
6.1729
6.0121
5.90579
5.93086
5.91514
6.02204
6.11548
5.70477
4.51853
5.95558
5.90102
6.00561
5.89632
5.81621
5.95175
5.87812
5.91218
5.77263
4.3751
5.92203
5.82544
5.85725
5.93408
5.96452
5.79618
5.54734
5.79061
5.01338
3.97386
6.15208
6.15814
6.11515
5.98767
6.00309
5.85591
5.85143
5.44396
4.89393
3.15016
6.03367
5.90537
5.91332
5.737
5.77748
5.78363
5.58565
5.84663
5.41952
3.81405
5.83487
5.87695
5.9225
5.97416
5.99063
5.88286
5.95114
6.02577
4.40471
3.16081
5.95035
5.98254
5.96243
5.94759
5.80211
5.8593
5.95223
5.90743
5.14312
3.28747
5.82115
5.82256
6.00864
5.95718
5.92861
5.97524
6.06586
5.82704
4.88323
4.08228
6.0136
6.07355
6.08153
6.1131
6.07508
6.10047
6.07715
4.90264
5.67062
3.70225
6.11878
6.03466
5.95704
5.92795
5.94716
5.95872
5.93797
5.8872
4.80801
3.83354
5.93058
5.90073
5.94723
6.02456
5.87189
5.84606
5.86816
5.54663
5.0262
4.08724
6.07206
5.94572
5.93718
5.94933
5.96924
5.86909
5.51906
5.5503
5.35461
3.85501
5.99382
5.9567
6.0097
5.84335
5.93999
5.90443
5.10502
5.60372
4.67609
3.83514
5.91972
6.03496
5.96946
5.92398
5.86912
5.95846
5.63218
5.42152
5.24852
3.89472
6.04716
5.90623
6.02308
6.11391
6.18581
6.23508
6.17594
6.20314
5.53726
3.63598
6.01419
6.11382
6.22067
6.12482
6.22746
6.18899
6.06651
6.12883
6.15574
3.89499
6.03114
6.19905
6.20347
6.13217
6.01368
5.97754
5.40428
5.99685
5.48192
4.63858
6.07387
6.03039
6.17513
6.32947
6.30201
6.14273
5.86239
5.31596
5.50177
4.65713
6.15285
6.09491
5.90018
5.8614
5.94456
5.95265
5.98606
5.98498
5.15489
3.48609
5.88413
5.87951
5.87684
5.79508
5.75891
5.74399
5.83287
5.78497
5.55875
3.6771
6.05826
5.97778
5.98358
6.02407
5.94651
5.9758
6.00746
5.81915
4.7621
3.78945
5.94298
5.88713
5.88067
6.00247
5.99261
6.0069
6.04157
5.20955
5.18106
4.16091
6.02098
6.07823
6.10201
6.06457
6.05528
5.79693
5.86617
5.74115
5.36115
4.27677
6.1002
5.96964
6.00272
6.01502
5.87288
5.96051
6.01121
5.85889
4.73394
3.68147
6.23425
6.26291
6.1755
6.22561
6.36653
6.21345
6.10884
5.671
5.92467
4.6214
6.04406
5.98364
6.03868
6.1009
6.07091
6.07108
6.11132
5.99664
5.92247
5.58179
5.96909
5.97674
5.93181
5.89548
5.82564
5.49388
5.52445
5.20064
3.82364
2.81737
6.0728
6.09069
6.03667
6.02513
6.11103
6.02809
5.43815
4.66391
5.12081
3.17097
6.08375
6.00654
6.02834
6.09174
5.71537
5.32991
5.26512
5.17331
4.51897
3.50227
5.95248
5.97179
5.91609
5.50713
5.47996
6.00114
6.1436
5.43028
4.46521
4.42612
6.15899
6.10495
5.63623
5.62565
6.00595
6.10501
6.00797
5.00962
5.08375
4.10813
6.31866
5.63564
5.85122
5.96607
5.85623
5.83917
5.83664
5.704
5.00169
4.49901
5.98994
5.9416
6.01402
6.16477
5.98509
6.00107
5.99792
5.88183
5.62929
4.3199
6.10919
6.17365
6.10983
6.03751
5.9153
6.02545
6.14234
5.24765
4.80644
3.85656
6.1289
6.06935
6.19736
6.26273
6.22064
6.1334
6.06004
4.95955
4.33411
3.98597
6.01768
6.0576
6.08301
6.11535
6.13596
6.15752
5.3787
5.77465
4.95384
3.95935
6.02314
5.90931
6.04762
6.16251
6.06861
6.13799
5.38602
4.96329
5.36069
4.08843
6.05696
6.24495
5.98463
5.9046
6.01334
5.87396
5.4347
5.28648
4.7597
4.72187
6.12956
6.05442
6.0406
6.11185
6.08013
6.04567
5.76509
6.01146
4.94474
4.05522
6.05585
6.06318
6.15656
6.0955
6.11056
6.15847
5.87866
5.99603
5.48225
4.01531
5.93696
6.00607
6.00981
6.09785
6.04678
6.04721
5.88572
5.14718
5.52227
3.91871
6.00934
5.97919
6.01764
5.91442
5.87417
5.77049
5.50536
4.62028
4.29613
3.972
5.87548
5.92915
5.89651
5.85398
5.91201
5.96045
5.88879
5.86911
4.7843
3.70919
5.73239
5.82029
5.84076
5.95435
6.00939
5.90445
5.80324
5.53582
4.71125
4.94957
6.01149
5.91974
5.8663
5.92078
5.82828
5.83216
5.84756
5.76944
5.15014
4.50618
5.74778
5.85121
5.9929
6.05611
6.07133
6.20928
5.36091
5.76579
4.76463
3.99371
5.99387
5.96538
6.01367
5.98326
5.97817
5.951
5.96174
5.6184
5.51455
4.20172
6.36446
6.22511
6.10261
6.04243
6.01758
5.40033
5.19376
4.71187
4.79397
4.22095
5.97319
6.06464
6.03355
6.11838
6.109
6.06822
6.0076
5.50155
4.41637
3.62435
5.91082
5.90717
5.93883
6.08508
6.15021
5.98318
5.89023
5.16409
4.51055
4.21765
5.99195
6.15071
6.05467
5.90906
5.95398
6.09901
5.37624
4.46598
4.47764
4.18882
5.92425
5.85839
5.98252
6.07208
6.1446
6.10553
6.17399
5.24872
5.61195
4.20185
5.93436
5.89831
5.80903
5.96993
6.0978
6.10301
6.13617
6.15866
4.78658
3.79969
6.12367
6.08525
6.13935
6.02281
5.98878
6.05026
5.90861
5.94879
5.08961
3.90174
6.31456
6.1803
6.21737
6.1961
6.06629
5.94463
6.0274
5.59807
4.38594
3.73933
5.95658
6.02884
6.10469
6.02263
6.06585
6.16136
6.15132
5.8277
5.47322
4.26994
6.08582
6.03058
6.00568
6.04082
5.99826
6.01046
6.06513
6.01699
5.44858
4.03659
6.19008
6.32232
6.15806
6.11759
6.02867
6.21533
6.1291
6.03201
5.46007
5.28017
5.90102
6.03507
6.14331
6.05019
6.05188
6.17097
6.17779
5.79812
4.97849
4.21979
5.95991
6.00174
6.06992
5.97224
6.11868
5.95361
5.92365
5.78612
5.4725
4.37496
6.20319
6.20271
6.16059
6.10945
6.02341
6.03559
5.46603
5.36369
4.76824
4.20642
5.96223
6.03358
5.93785
5.90714
5.84304
5.83293
5.93271
5.9264
5.88935
4.6934
5.8458
5.89103
5.9036
5.92398
5.9553
5.90501
5.97705
5.01982
4.17323
2.93203
6.06084
6.00938
6.21749
6.25996
6.18738
6.10543
6.07403
4.97536
4.02003
3.23201
5.91862
5.97133
6.03219
6.02347
5.89048
5.28919
5.86697
5.91191
5.57271
4.2852
6.00219
5.96901
6.01211
6.0245
6.06362
6.03119
6.1964
5.79628
5.58957
4.16201
5.82964
5.92674
5.9193
5.9746
5.95363
5.7765
5.84287
5.33908
4.81478
4.55655
6.31636
6.3403
6.19568
6.13404
6.00932
5.93521
5.35931
5.33385
5.81766
5.03972
6.07874
5.9118
6.01512
6.1019
5.77329
6.31081
5.7612
4.75631
4.99913
4.45292
6.1009
5.96089
5.97623
6.03401
5.70005
5.76515
5.71306
5.24794
4.62129
4.38801
5.82874
5.86907
6.00206
6.01359
6.06986
5.46552
5.21534
5.8871
4.77455
5.09152
6.01207
6.00763
5.81807
5.829
6.05917
5.96185
5.73276
5.83552
5.74739
5.36388
5.94764
5.83488
5.93829
6.01563
5.87754
5.91012
5.96299
6.0851
5.95194
5.29917
6.01751
5.98545
5.8625
5.81876
5.9654
6.15729
5.35836
4.97516
4.9299
5.21455
5.8783
5.84665
5.94312
5.90606
5.96513
5.92749
5.95133
5.5938
4.96194
4.50842
6.3041
6.26122
6.26555
6.20918
6.16084
6.11705
5.94853
5.80628
4.97327
4.35473
6.16835
6.2793
6.29432
6.061
6.00743
6.11622
5.82845
5.77454
5.23384
4.56995
5.9994
6.00451
5.90784
5.44964
5.46705
5.25449
5.12031
4.84186
4.34685
4.03777
5.96902
5.94372
5.95011
5.8864
5.91552
5.7648
5.83363
5.6575
4.79867
4.38286
5.99357
5.93001
5.89436
5.92825
5.91169
6.07567
5.77538
5.51605
5.24538
5.47575
5.91702
5.93611
5.90337
5.87113
5.82411
5.73136
5.16967
4.949
4.68144
5.16049
5.96243
5.92505
5.94533
5.93757
6.02489
5.83789
5.64819
5.21252
4.5207
4.70477
5.87591
5.99713
6.00457
6.13945
6.27142
6.10691
5.62037
5.3572
4.93255
4.04594
6.19374
6.15444
6.21107
6.22467
6.16586
6.19569
5.99442
6.24168
5.92844
4.507
6.22259
6.16844
6.06533
6.05662
6.07106
6.08201
5.93195
5.52977
4.87695
4.00515
6.08703
5.99771
6.10753
6.09389
6.03948
5.88293
5.64289
5.70262
5.4891
5.06418
5.99308
6.01979
5.98385
6.1289
6.01458
5.97956
5.494
5.80242
5.24733
4.66631
6.09983
6.13502
6.11365
6.08656
5.98945
6.06005
6.12753
5.9271
4.78251
4.28368
6.05356
6.089
6.20003
6.18054
6.12143
6.01601
6.12781
6.02093
4.97336
5.28318
5.98942
6.12742
6.10658
6.0255
5.9185
5.97264
5.93425
5.89525
4.57375
4.5589
6.08541
6.01704
6.08684
6.07923
6.09004
6.11855
6.15907
5.60671
4.91878
4.35774
5.91064
5.91889
5.91066
5.95909
6.02855
6.01624
6.22129
5.89684
5.62473
4.97619
5.90131
5.88458
6.07482
6.13491
6.20019
6.20614
5.98333
5.81518
5.23353
4.93038
6.12441
6.02866
6.01575
6.00674
5.92594
6.03826
5.91122
5.11699
5.16569
4.87586
5.99057
5.92961
6.11419
6.08725
6.0269
5.95592
6.08944
5.54307
4.9046
4.70746
5.74647
5.70103
5.66064
5.82601
5.69521
5.44387
5.86563
5.9297
5.67081
5.22862
6.09615
5.95735
5.97332
5.95394
5.96834
5.89352
5.87435
5.05789
5.16495
5.35142
5.94656
5.93364
6.06326
6.09824
6.04893
6.07554
5.4541
5.93465
5.78057
5.66988
6.11706
6.10804
6.15381
6.23828
6.09917
6.11121
5.43602
4.77317
5.13642
3.87483
5.9809
6.00813
5.9296
5.91623
5.9108
5.83497
4.72231
4.54988
4.45073
4.13922
6.08149
6.05417
6.02096
6.03656
5.89307
5.91978
6.14061
4.79514
4.2505
4.28542
5.91681
6.00982
5.78224
6.15587
6.1762
6.09132
5.476
4.77262
5.81584
4.28764
6.21793
6.20602
5.53265
5.94451
6.06118
6.0157
6.09445
5.68595
5.52283
4.62376
6.08741
6.21207
6.03594
5.33879
5.9278
5.86889
5.53269
5.95641
5.67079
5.3355
5.96047
5.97291
5.955
5.55871
5.42643
5.59126
5.38712
5.52686
5.29823
4.93342
5.88073
5.897
6.02685
5.99461
5.92014
5.82184
5.36536
6.03383
5.37046
5.79563
6.04875
6.11272
6.00063
5.8448
5.78724
5.92431
5.98196
5.4201
5.06465
5.46414
6.19422
6.11322
6.09726
6.02349
5.96068
5.95172
5.9928
5.55069
5.54013
4.53407
6.35073
6.55937
6.32573
6.14069
6.0363
6.04697
5.46646
5.63516
6.02036
5.24377
5.83804
5.85713
5.83077
5.93157
5.46209
5.19453
5.89026
4.97708
5.95906
4.92646
5.76992
5.86376
5.77151
5.81906
5.99982
6.05926
5.97442
5.89067
5.16125
5.31768
5.97276
5.89173
5.98077
6.01646
5.85011
6.00201
5.89969
5.01219
5.29841
5.05111
5.88883
5.79208
5.74849
5.87842
6.03773
6.11388
6.04332
5.22911
5.54537
5.70917
5.9231
5.57856
5.47781
6.06383
5.90303
5.36867
5.62925
5.22506
5.03012
5.93171
5.46672
5.67192
6.00781
5.84447
5.47873
6.00328
5.98801
5.84993
4.91868
4.24823
5.97236
5.95525
5.85799
5.9042
6.00377
5.92258
6.0073
6.11316
5.94151
5.50963
5.79863
5.84537
6.02086
5.89196
5.69675
5.45685
4.77774
5.02682
5.17809
5.4457
6.07006
6.01323
5.98437
5.90248
6.02234
5.93368
6.00615
5.92973
4.63285
6.12846
5.9486
6.02184
5.97659
5.89117
5.74058
5.8721
4.94646
5.8363
5.66014
5.12502
6.09763
6.16772
6.04868
5.9176
6.01278
5.88431
5.84638
5.99587
5.58481
4.60189
6.17237
6.17131
6.20549
6.196
6.11645
6.02425
5.94833
6.07672
5.81827
4.05889
6.03648
5.99835
5.81765
5.70021
5.70931
5.73588
5.80745
5.20747
4.74901
5.69106
6.06829
6.1384
6.0219
5.96282
5.95005
5.89486
5.91653
6.02205
5.58749
5.285
6.10188
6.12205
6.24267
6.13053
6.10247
6.18352
6.23635
5.36929
5.48077
4.83017
6.05455
6.14595
6.17772
6.17602
6.17441
6.03747
6.02668
5.05368
5.45797
4.35455
5.80747
5.82778
5.86808
5.91682
5.86862
5.92976
5.92262
4.98405
5.46727
5.5917
6.0826
6.07618
5.94298
5.96486
6.06343
6.17171
5.56567
6.06439
5.34001
4.93449
5.80132
5.90283
5.93145
6.06047
6.05912
6.02985
5.85741
5.24788
5.71546
6.06831
5.87534
5.88557
5.92897
6.01747
6.10491
6.05582
6.16327
5.89315
5.92126
5.64908
6.13196
6.26805
6.16527
5.96364
5.86864
5.84802
5.58707
5.7249
4.54334
4.43237
6.0865
6.012
5.85498
5.86552
5.95125
5.72006
5.47891
5.58604
5.47712
5.69904
6.10414
6.08245
6.16569
6.10075
6.09492
6.104
6.15295
5.62922
5.14051
5.19251
5.92326
5.97505
6.03236
5.96798
5.99016
5.989
5.86975
5.78909
5.64711
5.79611
5.77619
5.89348
6.01456
6.11428
5.95314
5.48279
5.49096
6.15319
6.10358
5.87916
6.11377
6.14859
6.13949
5.95619
5.9481
5.97804
5.2793
5.60258
5.1527
4.17965
6.10605
5.95496
6.07894
5.66459
5.46407
5.18829
4.99634
5.4173
5.49129
4.74435
6.02001
6.07758
5.9847
5.81688
5.83439
5.89368
5.82825
5.38456
5.33988
4.74609
5.92272
5.76195
5.97655
5.85853
5.9359
5.79969
5.97787
5.97751
4.88155
4.36519
5.9598
5.73369
5.81573
6.03874
6.05405
5.28161
6.01072
6.11131
5.02417
5.01149
5.92727
5.82892
5.8615
5.88149
5.79978
5.00834
5.75573
4.74551
5.88318
6.12644
5.94499
6.0385
6.00351
5.90326
5.87053
5.82923
5.6665
5.40897
5.78576
5.75847
5.98937
5.98608
5.88332
5.84864
5.79534
5.84926
5.82633
5.82358
5.27571
5.74356
5.9539
5.91138
5.98855
6.05271
6.09019
6.04309
5.70026
5.85354
5.68052
4.75916
5.80864
5.77286
5.91361
5.79487
5.75606
5.18541
5.8225
5.80214
5.69221
5.14112
6.07595
6.06288
5.74407
5.8827
6.13986
6.09357
5.78145
5.84708
6.01107
5.08682
6.18642
6.07293
6.03965
5.6032
5.86642
6.12745
5.94231
5.27844
5.84051
5.28629
6.09503
6.06997
6.10177
6.21125
6.12075
6.02597
5.59073
6.12907
5.9771
5.69421
6.10077
6.00934
5.85114
5.8097
5.90859
5.3121
5.38196
5.47568
5.94309
5.32621
5.75149
5.78449
5.94731
5.9816
6.00629
6.05644
6.08168
6.0389
5.99112
5.63214
6.04258
6.00734
5.86789
5.54381
5.34998
5.40085
5.65306
5.94509
5.53265
5.46427
5.53222
5.76549
5.97265
6.09057
5.82684
5.2954
5.84495
4.78584
5.06343
5.49806
5.98321
6.02118
5.93919
5.79046
5.82678
5.98511
6.10108
5.67285
5.46605
5.49489
5.97497
5.9335
5.94243
6.03388
5.90523
5.73224
5.60182
5.26614
5.24789
6.07107
5.95694
5.89446
5.63794
5.43599
5.43755
5.30521
6.10027
6.17948
5.8071
5.7779
5.97194
5.95976
6.01262
6.06313
5.35904
5.47399
6.01034
6.19416
6.1329
5.50284
5.92599
6.05716
6.11373
6.09436
5.9896
5.88641
6.15468
5.95921
5.24081
5.24817
6.18959
6.10704
6.07823
5.97519
5.96542
6.08446
6.01184
5.612
5.33624
5.00855
6.04657
6.00397
5.97732
5.94308
5.9103
5.95867
5.97506
5.4469
5.64292
5.42321
5.99295
5.84318
5.92342
5.91848
5.9352
5.99439
6.02881
6.08971
5.7087
5.53617
5.84066
5.88911
5.87163
5.95302
6.03236
5.96969
5.63043
4.90955
5.27442
4.99479
6.24845
6.12428
5.94491
5.93054
5.9178
6.05361
5.82826
5.46943
5.47454
5.11812
5.8346
5.74667
5.7966
5.86879
5.96475
6.05417
5.80015
5.48462
5.54292
5.42927
5.92308
6.01696
5.95613
5.97215
5.95329
5.94959
5.86003
5.40605
5.80596
4.81906
6.04846
6.10788
6.03868
5.94979
5.90562
5.99968
5.72705
5.77703
5.80643
5.98605
5.9186
5.92045
6.10626
6.31827
6.28842
6.03812
5.56875
5.55393
6.08157
5.14109
5.94585
5.8381
5.8228
5.80761
5.84701
5.84456
5.93728
5.35757
5.3132
5.86765
5.75346
5.93877
6.1089
6.16863
6.14502
6.0636
5.84175
5.5388
5.16101
5.55256
6.16148
6.26215
6.16491
6.09348
5.92761
5.88256
5.77125
5.57063
5.63934
5.1391
5.91756
5.892
5.90383
5.93754
6.04782
5.96396
6.02955
5.93407
5.47977
5.4061
6.11728
6.04699
6.03095
5.9875
6.01145
5.88547
5.93957
5.98262
5.81316
5.49535
6.14466
5.76705
5.52331
5.43706
5.64891
5.95275
5.95879
5.6972
4.70482
3.59798
5.68884
5.71769
5.77705
5.87902
5.83907
5.38356
5.30139
5.17491
4.68311
4.02824
5.7572
5.83859
5.83177
5.68639
5.92881
5.96269
5.19245
5.28518
3.92631
3.85158
6.10275
5.99475
6.0255
6.10787
6.21266
6.29591
6.04806
5.28489
4.70086
5.20574
6.07689
6.19512
6.1299
6.11355
6.11361
6.17183
6.20153
5.76539
5.81839
5.42106
5.82143
5.81082
5.82588
5.96282
6.03301
5.76922
5.42686
5.71958
5.82547
5.65667
6.0062
6.18704
6.13719
6.04786
5.99425
5.74383
5.77739
5.82661
5.68069
5.52537
5.93698
5.97577
5.99921
5.91897
5.94612
6.08065
6.19185
6.16604
5.31336
6.25135
6.16155
6.11108
6.09543
6.2352
5.50436
5.82912
5.7127
5.51542
5.8924
5.60053
6.0583
5.89461
5.8549
5.91364
5.98756
5.77548
5.88581
5.9202
5.84673
5.59667
5.7909
5.84742
5.85902
5.89955
5.85431
5.71661
5.67548
5.92756
5.37157
5.3543
5.98434
6.06427
6.12165
6.02718
6.05114
6.06159
5.59924
6.02591
5.89805
5.36436
5.98836
6.05055
6.05375
5.95349
5.88365
5.98064
5.6052
5.84069
5.78091
5.87073
5.9609
6.00211
6.04709
5.6927
5.49077
6.10664
5.7251
6.02606
5.94373
5.92908
5.90711
6.11763
6.05306
6.14542
6.15949
6.20495
5.93527
6.09535
6.00796
5.60685
6.15953
6.05517
6.02027
5.99043
5.61597
5.73668
5.89452
5.95239
5.8972
5.36921
5.87834
5.86991
6.00066
6.10363
6.16204
6.07448
5.15457
5.26364
5.58291
5.22899
6.215
6.11559
5.90075
5.90498
5.82131
5.85979
5.859
5.95711
6.02607
5.20955
6.19871
6.18576
6.2438
6.10877
5.70054
5.55367
5.91749
5.30824
5.89125
5.89948
5.93139
5.87742
5.73976
5.88654
5.90979
5.50908
6.12973
5.89954
5.96609
5.50748
6.40829
6.16565
6.0983
5.9662
6.10083
6.05254
6.07316
6.09294
6.21431
5.43901
6.12074
6.20774
6.30724
6.28704
5.94748
6.06522
6.06762
5.7253
5.86894
5.7876
6.12984
6.12354
6.10359
6.18697
6.22051
6.27647
6.1735
5.81857
5.81739
5.43631
6.23586
5.94026
5.99933
6.17414
6.20494
6.04368
5.82772
5.84584
6.08436
5.29859
5.94976
6.1051
6.21771
6.11327
6.11542
6.10148
6.06246
5.76867
6.05451
5.38912
6.23082
6.2428
6.21821
6.12745
5.97551
5.96206
5.71042
5.72021
6.17674
5.51153
5.93503
5.95921
6.06005
6.0923
6.07823
6.18687
5.97643
4.94361
5.393
5.48413
5.95881
6.08223
6.07939
6.20118
6.18676
6.08558
5.18582
5.89865
6.04866
5.58251
6.28023
6.03729
6.04496
6.00755
5.92601
5.89863
5.79458
5.91034
5.46444
5.47633
6.02001
6.06202
6.09617
6.13878
6.20992
6.08375
5.61687
5.9758
5.95251
6.24118
6.05775
6.02046
6.03872
5.96113
6.0026
5.9873
5.53824
5.88218
6.08992
5.21146
6.03678
6.10999
5.97649
6.08454
6.04583
5.86022
5.85258
5.62989
5.90725
5.77647
6.0367
6.03999
5.88248
5.90914
6.09996
6.06101
5.95484
5.11091
5.46351
5.85345
6.06743
6.13784
6.00817
6.00838
5.85408
5.9737
5.4669
5.36054
5.90349
5.39353
6.24255
6.2131
6.1251
6.0553
6.02045
5.89948
6.04524
5.60968
5.50012
5.92657
5.97277
5.88577
5.79459
5.85411
5.79594
5.82826
5.90832
5.89343
5.91105
5.89371
6.13269
6.06509
5.98928
6.01455
5.80981
5.45863
5.18252
5.20149
5.0931
3.57418
6.07125
6.16677
6.17278
5.94129
5.09825
5.48283
5.60442
5.51093
4.84511
3.41917
6.01686
5.84042
5.76138
5.45698
5.22968
5.88135
5.87425
5.13149
4.49828
4.38553
6.11138
6.08235
5.90873
5.88165
5.80486
5.24521
5.72787
5.13374
4.7529
4.74373
6.06838
5.95777
5.91413
5.87913
5.67164
5.42092
5.64234
5.64391
5.05131
5.57403
5.87364
5.91948
6.02804
6.05685
5.9981
5.76574
5.5565
5.77029
5.28513
5.62264
5.84128
5.76363
5.70447
5.79666
5.94349
5.91729
5.87113
5.99685
5.82075
5.77683
6.10493
5.94298
5.95418
5.89003
5.96131
6.09338
5.88806
5.79702
5.64379
5.69287
5.76223
5.84396
5.82824
5.93218
5.97131
5.9121
5.95978
5.51446
5.81953
5.63259
5.83809
5.90753
5.88156
5.73057
5.77332
5.64007
5.89676
5.9065
5.86423
5.87881
6.00519
5.77105
5.77609
5.75126
5.91422
5.6747
5.66391
5.78894
5.88889
5.49355
6.02681
6.02479
5.94888
5.75437
5.72551
6.00193
5.88074
5.63963
6.09137
5.60337
6.09863
6.03279
6.06288
6.24591
6.27718
6.09733
6.02989
5.90536
5.81596
5.83823
5.99485
5.97426
5.4559
5.84824
6.02386
5.93201
6.02154
6.04004
5.92693
5.90509
5.89956
5.87151
5.93344
5.89735
5.98932
5.91949
5.6756
6.0459
5.73988
6.19458
6.10839
5.99539
5.99038
6.04985
6.12062
6.11887
6.10442
6.06033
5.63013
5.43798
5.96495
6.04033
6.11721
6.02096
5.94201
5.80985
5.66901
5.98933
6.06859
5.9122
6.0251
5.9745
5.91704
5.88595
5.9671
5.87229
5.99149
5.82691
5.43712
5.97584
6.01234
5.97344
6.00532
6.00773
5.6668
6.09391
6.0514
5.77702
5.90983
5.95668
5.99466
5.98758
5.94898
5.94951
6.12194
6.09437
5.75992
5.70683
5.83301
5.48291
6.03123
6.07617
6.07048
6.05819
5.89357
5.66075
6.36588
6.09582
6.2296
6.24063
6.17139
6.25226
6.04035
5.83547
5.87566
5.74085
5.9468
5.67392
5.94149
5.72886
6.0247
6.0733
6.03402
6.12521
6.14871
6.06176
5.92807
5.92488
5.94343
5.98245
6.26281
6.29748
6.37512
6.15672
6.12606
6.23819
5.75733
6.04996
6.01294
5.964
5.99166
6.06344
6.12917
6.09686
6.09333
5.90118
5.99055
6.01479
5.96623
6.09336
5.95657
6.05624
6.00971
6.05372
5.98814
6.03334
5.45616
6.03297
5.6881
5.96828
5.97316
6.00162
6.10354
6.14006
6.07588
6.06224
6.04148
5.75225
5.64157
5.00418
5.87574
5.97143
6.05878
6.06359
6.09131
5.76337
5.85424
5.5014
6.03056
5.78974
5.96049
5.88549
5.8198
5.83211
5.80737
5.81079
5.42586
5.76221
5.44599
5.84557
5.88833
6.04755
5.9386
5.86346
5.82519
5.84579
5.78123
5.81481
5.71478
5.69119
5.81456
5.64134
5.76964
5.94811
5.91237
5.92577
5.89272
5.58307
5.75461
5.14587
5.87787
6.04777
6.0719
6.05637
6.05564
5.93891
5.92274
5.87022
5.8724
5.66541
6.07842
5.72463
5.89742
5.87903
5.78422
5.92294
5.85384
5.74344
5.06429
5.5926
5.94754
5.92562
5.94874
6.11594
6.20733
5.41223
5.91812
5.97135
6.15397
6.07366
6.04274
5.92095
6.00548
6.09649
6.1229
6.14909
6.03284
6.08031
5.95431
5.97615
6.05691
6.06282
5.94059
5.94263
5.8783
5.98056
6.15068
6.00147
5.83793
5.77166
6.08955
6.02654
5.91428
5.87517
5.88452
5.97705
5.93309
5.98867
5.65225
3.85595
6.13865
6.15273
6.14873
5.92484
5.67499
5.34922
5.31882
5.38285
4.65787
4.16461
5.79974
5.76928
5.81236
5.51634
6.16124
6.15775
5.9186
5.6678
4.61868
4.69397
5.82137
5.90752
5.83717
5.71019
5.92804
6.05889
6.14112
5.94181
5.3274
5.04212
6.17667
6.21121
6.23148
6.12767
6.25947
5.62716
5.70169
5.49318
5.26002
5.38598
6.01795
5.97597
5.88408
5.80357
5.88788
5.91209
5.87066
5.70864
5.92169
5.76326
5.94812
6.07433
6.1089
6.1547
6.01448
6.1356
5.67076
5.53585
5.68541
5.86802
6.01584
6.0486
5.98687
5.90843
5.97658
5.93778
5.89318
5.55477
5.95645
5.59414
5.8287
5.84091
5.95179
5.99968
6.07539
6.02392
6.01854
5.96765
5.98211
5.69367
6.01742
6.12987
6.05378
6.1132
5.96642
6.07271
6.18138
6.13005
6.25914
5.99277
6.00163
5.99519
5.96908
5.92485
5.87635
5.38517
5.96298
5.88318
5.87691
5.72949
6.23621
6.22858
6.16287
6.01078
6.03644
5.9179
5.43653
5.92914
5.66463
5.45456
5.84985
5.87172
5.8914
6.13139
6.12367
5.99429
5.92091
5.90511
5.91978
5.89897
6.00231
6.1512
5.96834
5.92471
5.83878
5.87572
5.81111
5.91957
5.87695
5.53639
6.06149
6.05518
5.91614
5.94782
6.00945
5.52713
5.85197
5.81329
5.78573
5.68414
5.7774
5.75851
5.7526
5.98993
5.97079
6.04305
6.13127
6.10271
5.73215
5.28023
6.02589
6.10086
6.20494
6.0621
5.93264
5.49144
5.90874
5.72399
5.66074
6.02864
6.06072
5.99518
6.00588
6.06653
6.18842
6.1971
6.01352
6.06265
6.11744
6.0047
5.86801
5.88038
6.08974
6.13939
5.89783
5.80267
5.97553
5.81774
5.87772
5.89098
5.90574
5.84388
5.88205
5.93093
5.96659
5.95531
5.98652
5.96654
5.88231
5.83636
5.88878
5.96144
6.03784
6.19844
6.04872
5.94175
6.03477
6.08315
5.93995
5.41258
5.98318
6.11805
6.13024
5.95672
5.85805
6.0372
6.05891
5.93478
6.06785
6.0011
5.89555
5.73374
5.71981
5.83009
5.89886
5.97907
6.01529
6.05594
6.09105
6.13052
5.858
5.8404
5.80568
5.95041
6.06266
5.99543
5.76859
5.8795
5.99573
6.07775
6.0807
6.07739
6.10164
5.88163
5.79272
5.82437
5.9884
5.97917
5.96299
5.91812
5.94347
5.94543
5.9528
6.06681
6.03208
5.61852
6.08172
5.99932
5.47334
5.84927
6.00352
6.13299
6.1348
6.00633
5.92715
6.01004
5.97584
6.13508
5.87856
5.32694
6.07933
6.078
5.96047
6.07427
6.12863
5.65972
6.09126
5.84548
5.77075
5.95754
5.98924
5.95649
5.94668
5.95537
5.98882
5.90912
5.9901
5.41933
6.00534
6.02218
6.08975
5.91959
5.90584
5.88785
6.07609
6.15687
5.721
5.9856
5.91215
5.63058
6.02335
6.10591
6.00466
5.96943
6.08239
6.02811
5.75813
6.05712
6.13702
6.0472
5.84527
5.82831
5.82867
5.70904
5.71561
5.82204
5.80024
5.91745
5.95216
5.45403
5.97181
5.9934
5.95202
5.88789
5.78374
5.89039
5.95941
6.04669
5.68096
5.93097
6.07171
6.04826
6.01274
5.9284
5.91672
5.76835
6.07482
5.98567
5.86624
5.9005
5.70104
5.85403
5.91549
5.88994
5.93885
5.87241
5.84692
5.77877
5.92027
6.02334
6.02051
6.06175
6.01408
5.89304
5.83106
5.92316
5.98254
6.02428
6.13274
6.13131
5.98009
5.91095
5.94895
5.96053
5.99485
5.94775
5.98649
5.85014
5.43003
3.82973
6.04229
6.16257
6.25304
6.25274
6.21515
6.01228
5.58303
5.75299
4.56359
4.42501
5.77071
5.79848
5.84094
5.77138
5.72685
5.79605
5.60028
5.39867
5.90571
5.16787
6.01029
6.06851
5.65023
5.92864
5.96323
5.92198
5.6235
6.20037
5.98073
4.47271
6.09933
6.09953
5.92659
5.98903
5.9395
5.79393
5.37796
5.76811
5.21014
5.37625
6.06125
6.24925
6.17953
6.12948
6.00228
5.98088
6.065
5.44514
5.78487
5.69118
5.93295
5.92527
6.02045
6.11665
6.21436
6.21574
5.55146
5.96661
6.03392
5.50789
6.12556
6.18861
6.17725
6.10654
5.91017
5.8191
5.78827
5.76704
5.82419
5.55621
5.90844
5.85539
5.78935
5.87063
5.90221
6.0522
6.06335
6.15385
6.06165
5.79299
6.14909
6.26848
6.113
6.00673
5.50985
5.95025
6.00103
6.05015
6.06746
6.07429
6.02553
6.00435
6.06161
6.07554
6.0229
5.78632
5.83465
5.80287
6.02277
5.55908
6.12334
6.16425
6.16579
6.17592
6.18642
6.19045
6.16678
6.17607
6.07279
5.90547
6.02189
5.96979
6.09148
6.10069
6.25566
6.18859
6.12656
6.1178
5.99814
5.95274
5.98848
6.02083
6.05962
5.98098
5.81418
5.77404
5.79458
5.84478
5.82206
5.87103
6.08696
5.97245
6.10195
6.00182
5.98891
5.73366
5.95261
6.09815
6.08186
5.8868
6.18299
6.30167
6.07206
6.1691
6.04626
5.79341
5.97164
6.04632
6.15265
5.82531
6.15367
6.13024
6.10877
6.01122
5.55072
6.1118
6.19393
5.67852
6.04481
5.84259
6.02154
6.04167
6.00221
6.05638
6.01086
6.00341
6.00833
6.10711
6.11174
6.08066
5.97333
5.89406
6.02044
6.02436
6.22911
6.13576
6.11924
5.96909
6.00141
6.07998
6.11441
6.07085
5.96835
5.9881
5.89303
5.8928
5.91968
6.11458
6.25952
6.17083
6.00179
5.98672
5.89531
5.88799
6.00913
5.97399
5.92917
5.87095
5.87189
5.96458
6.00956
5.95586
5.99849
6.03578
5.94285
5.86365
5.89456
5.89417
5.74623
5.86723
5.97185
6.00935
6.06284
6.07161
5.99928
5.9794
5.97838
6.04189
6.19006
6.17382
6.31482
6.17745
6.03003
5.92776
6.01183
6.08539
6.13672
6.05134
6.04776
5.98138
6.07905
6.06066
6.19064
6.27397
6.22489
6.03177
5.95347
5.90404
5.93162
5.91477
6.0977
6.09354
5.82673
5.8174
5.95948
5.54808
5.94693
5.99946
5.56207
5.4804
6.30729
6.22244
6.39066
6.36728
6.45451
6.39245
6.1254
6.10668
5.46043
5.96945
6.02874
6.14749
6.21275
6.2978
6.21083
6.09964
5.97726
6.08432
6.12372
5.85469
6.29823
6.21531
6.13544
6.17714
5.94569
6.0346
5.83999
5.59844
6.04821
5.91739
6.13512
6.29667
6.49465
6.33167
6.28267
6.16331
6.14766
5.98608
5.8775
5.89388
5.97545
5.85018
5.7841
5.94334
5.9775
5.73618
6.17177
6.08756
6.09517
6.08157
5.94111
5.84506
5.85462
5.96644
6.15175
5.94163
6.17851
6.03529
5.89276
5.59373
6.01857
5.97863
6.0129
5.95625
5.99951
6.15702
6.20693
6.26252
6.09321
6.3324
5.86111
5.88447
5.97688
6.07736
6.03903
6.04718
6.05069
6.05971
6.04753
6.02431
6.06011
5.8992
5.80556
5.75789
5.7843
5.86543
5.93973
6.11376
6.01724
5.885
6.11854
5.9544
6.01166
6.02717
6.09513
6.18415
6.00512
5.89467
6.1039
6.29463
6.05112
6.04055
5.9907
6.0402
5.96265
5.97077
5.73586
5.84441
5.47904
4.10239
6.02684
6.17599
6.12563
6.12272
6.17507
5.9834
5.2447
4.96502
4.29824
4.03513
6.01625
6.01595
6.14065
6.13532
6.09222
5.36491
5.82027
5.7718
5.32052
4.64434
6.10386
5.99239
6.00092
6.09641
6.19352
6.0651
5.65355
5.59028
5.65231
4.81249
5.92293
5.87479
5.8371
5.78298
5.85653
6.07158
6.17475
5.85412
5.01843
4.75913
5.86703
5.83197
5.92117
5.98069
6.07011
5.92706
5.77204
5.86876
5.94715
4.87256
6.16336
6.01487
6.0467
5.93899
5.9653
5.93126
5.76186
6.04015
5.96173
5.36325
5.90141
5.98783
5.94323
6.05585
5.98127
5.97413
5.89216
5.95453
5.99062
5.61227
5.89637
5.86843
5.94946
5.97064
6.0464
6.01157
6.01299
6.07476
6.02518
5.58507
5.87187
6.02445
6.15583
5.8944
5.82268
6.06835
6.05251
5.93331
6.03945
5.75216
6.08705
6.06041
6.21347
6.12929
6.11293
6.14059
6.20666
6.2235
5.99671
5.63793
6.20331
6.14332
6.07175
6.1257
6.19542
6.09113
5.94697
5.97327
6.06527
6.03543
6.07827
5.92607
5.99925
6.12679
6.00029
6.0097
5.98325
5.89262
6.06615
5.99076
5.90634
5.96224
5.86389
5.81684
5.91324
5.97977
5.98139
5.82574
5.77771
5.79111
6.15835
6.15419
6.21265
6.05972
5.91816
5.95995
5.91537
5.9552
5.96159
6.22086
6.13491
6.12947
6.19357
6.32448
6.00106
5.98388
6.19465
6.15873
6.06796
6.07124
5.98546
5.9377
5.89529
5.37717
5.71623
5.88981
5.7394
5.36769
5.81592
5.88176
5.96108
6.07478
6.04531
5.85582
5.87734
5.88024
5.82365
5.92726
6.00739
6.07542
6.04189
5.9755
5.89631
5.92551
6.1413
5.96957
6.04224
6.07541
5.94131
5.78089
6.17263
6.3037
6.05548
5.90272
5.75113
5.87532
5.88677
5.81501
5.79524
5.93834
6.05499
5.93492
6.01492
5.9559
5.99576
6.0834
6.2009
6.3309
6.21375
5.99484
6.16221
6.26689
6.13176
6.09329
6.02788
5.91839
5.75612
5.66705
5.73177
5.93618
6.12933
6.09141
6.09199
5.9031
5.8395
6.00999
6.14263
6.12354
6.03158
6.08038
6.02651
6.01623
6.05597
6.11988
6.05016
5.89964
5.90238
6.01459
6.08195
6.04322
5.96946
5.97327
5.99538
5.90427
5.90543
5.90685
5.88042
5.92735
5.97584
5.68344
5.99651
6.01326
6.03536
6.0936
5.90838
5.95848
6.13241
6.22818
5.82755
6.23029
6.14226
6.12531
5.9483
5.94518
6.0254
6.06438
6.12238
5.75192
6.01908
6.00134
5.93076
5.94531
5.99107
5.90324
5.83907
5.9438
6.09582
6.15544
6.12363
6.18413
6.02191
6.097
6.06676
6.0854
6.04604
6.07211
5.99299
5.7947
6.04945
6.16144
6.17688
6.00382
5.96068
6.09701
6.19561
5.9595
5.88618
5.94656
6.04785
5.87189
5.80247
6.02636
5.94714
5.82478
5.76273
5.7151
5.81013
5.85414
5.90752
6.01422
5.83289
5.87126
6.02595
6.13538
6.07188
6.01563
5.95944
5.84763
5.82872
5.81048
6.13874
6.02005
6.0864
6.23158
6.0906
5.99443
5.97715
5.91574
5.78035
5.98605
5.98015
6.02008
5.91603
5.85359
5.87769
6.03335
5.90026
5.88859
5.96463
6.04291
5.7993
5.82461
5.98866
6.0945
5.99475
5.84726
5.83035
5.80462
5.95541
6.03936
5.85741
5.79502
5.85425
5.98573
6.03764
5.97747
5.97972
6.04875
5.96903
5.94088
5.97194
5.96133
5.91224
6.14341
6.09933
5.37224
5.88805
5.24577
4.42347
3.84103
5.97795
5.99877
6.08828
6.05354
6.01368
6.05162
5.98421
5.37566
4.43614
3.49629
6.02669
5.94968
5.84761
5.9506
5.50748
5.92138
5.6734
5.82813
6.04213
4.24511
5.753
5.78551
5.80351
5.86064
5.89837
5.96382
5.93142
5.58464
5.78592
4.64521
5.96129
6.03727
6.13418
6.12849
6.07166
6.02629
6.04366
5.96771
5.69472
4.94679
6.11769
6.10775
6.03357
6.10059
6.07289
6.00491
5.57801
5.80614
5.57058
5.67198
6.09132
6.10407
6.13674
6.16344
6.23538
6.11311
5.87706
6.07571
6.12743
5.81725
5.95154
6.07518
6.10337
6.10316
6.01306
5.88172
5.95776
5.97862
5.80743
5.74867
6.05446
6.09565
5.97927
6.04641
6.00693
6.00926
6.11069
6.09959
5.66633
5.98925
5.86594