/*--------------------------------*- C++ -*----------------------------------*\
| =========                 |                                                 |
| \\      /  F ield         | OpenFOAM: The Open Source CFD Toolbox           |
|  \\    /   O peration     | Version:  2.4.0-MNF                             |
|   \\  /    A nd           | Web:      www.OpenFOAM.org                      |
|    \\/     M anipulation  |                                                 |
\*---------------------------------------------------------------------------*/
FoamFile
{
    version     2.0;
    format      ascii;
    class       volScalarField;
    location    "5e-05";
    object      mctTimeStepRatio_Ar;
}
// * * * * * * * * * * * * * * * * * * * * * * * * * * * * * * * * * * * * * //

dimensions      [0 0 0 0 0 0 0];

internalField   nonuniform List<scalar> 
77760
(
65.7208
64.0449
62.3722
61.8852
62.5993
62.3299
61.922
64.5379
58.1427
44.0161
66.6324
68.1622
67.2825
71.6109
71.1881
68.6903
66.9316
63.8119
59.4339
50.8784
65.5054
63.348
64.3194
63.6604
63.1743
63.7784
61.7927
64.0418
56.8927
57.8441
67.7899
69.5965
68.7395
70.9334
72.377
68.0239
67.1349
60.9929
58.7111
58.2567
66.1599
67.7564
70.2071
66.404
64.9147
66.8273
65.6881
63.0479
58.9785
55.8905
67.346
68.5455
68.4002
71.4832
70.8508
68.2814
65.9873
61.7964
60.3023
60.9596
67.327
65.1933
65.5793
66.912
65.811
62.9981
65.3209
62.9672
64.0369
63.1037
66.7916
68.3121
68.8001
68.6241
70.9402
70.4057
69.3401
69.6753
68.4449
53.1717
66.9227
65.4715
63.7169
65.5892
67.2438
69.9278
70.0748
67.0726
66.2734
53.0516
66.9715
67.2853
69.0812
68.4774
68.6119
67.2688
70.1199
69.4826
64.8223
59.3036
66.5453
67.908
67.0122
68.0608
69.3591
68.0457
66.0033
63.2817
61.0027
54.3621
67.6379
66.6814
67.1188
65.1324
61.6392
64.9784
64.8444
64.9444
65.7089
58.1402
64.6973
64.9925
67.6188
66.708
67.8528
66.2052
67.3447
66.6389
63.5341
59.0447
67.7807
66.7134
64.8189
63.8189
64.3686
64.6986
65.9799
64.9111
60.0997
47.2935
67.3221
65.0514
66.4533
68.6993
69.8703
72.363
67.9321
67.5721
67.4046
58.6571
66.3829
67.4551
67.089
65.9171
66.539
63.3952
67.0124
71.2056
61.945
52.4239
67.0626
68.0346
66.4044
68.4437
65.8289
68.5716
68.1229
66.6426
61.6611
52.1561
67.1142
68.3016
71.6784
69.3061
71.0719
70.464
72.2517
72.2769
66.1523
59.3077
66.8962
64.6225
61.9376
61.5823
61.8767
65.1305
64.6399
59.9411
63.5335
55.4426
67.9141
69.2547
67.5283
65.5564
64.1909
63.5513
64.2706
63.5969
58.8593
53.2109
66.7795
69.428
71.8571
75.3087
74.1022
73.7899
72.8078
67.957
65.5556
59.9049
66.4048
66.6599
65.2273
65.187
64.8187
64.3772
62.3951
66.0587
64.8626
56.8824
68.188
70.7728
69.6294
67.6568
69.1399
66.5431
61.967
61.4546
55.7269
50.7821
65.0466
63.0707
64.7018
66.0184
64.9061
63.8857
63.7887
63.9765
65.005
56.6458
65.1892
64.3688
65.589
64.8606
65.8744
68.5412
66.1627
70.0633
67.3036
54.8904
66.9931
67.9042
67.4627
67.4715
70.0735
69.8662
68.4319
69.2047
68.7644
54.5361
65.5055
66.7332
68.0213
65.402
65.8284
63.0906
61.1426
62.4592
59.9106
58.5758
67.5089
70.6285
70.104
71.4659
69.8608
68.282
65.9187
63.9236
62.455
58.5171
67.3812
65.6481
64.5359
64.851
67.4623
65.0367
65.6057
68.1878
65.3374
55.0389
65.0464
64.6327
64.1338
63.4889
64.0753
65.8984
67.8798
64.0056
62.0106
53.3543
66.6867
66.4123
65.09
65.4809
66.0563
65.5654
65.3745
65.0356
60.9895
55.4154
68.6413
68.445
71.0084
70.7151
71.6377
72.879
71.8738
67.6036
68.7645
62.4377
66.9368
67.5601
67.1887
67.0304
66.5415
65.5949
65.7108
65.6145
64.3677
59.4474
68.0309
65.6961
67.3889
69.9562
67.6138
68.6731
69.8085
68.1895
60.0261
53.9954
67.1926
66.2884
64.7132
65.0435
65.1936
63.5761
64.1232
60.8996
63.7332
57.6548
67.4181
66.3614
67.1392
68.3949
69.3147
69.7736
68.9611
64.8262
61.6216
61.6392
66.0266
66.3021
65.4738
65.302
65.3343
64.5689
65.3955
61.252
53.7118
46.7968
68.33
69.1686
69.5026
68.2189
68.0263
71.3158
67.4604
64.5178
65.5426
52.4145
65.9104
66.0611
66.5147
67.8255
68.0069
65.3578
66.2328
65.6753
66.0472
58.4874
68.1448
68.3305
66.2613
62.7656
63.2183
66.3426
69.6161
65.1449
60.6336
59.6184
65.4121
66.7075
63.6705
64.8652
66.3222
66.2577
64.0396
56.7304
57.2977
50.6527
67.6393
62.0982
64.5002
65.4393
67.8546
69.5009
68.6615
68.5161
62.5888
60.4083
66.8375
66.6606
63.0386
65.0534
61.4693
60.9686
64.1231
63.2165
64.8375
56.087
68.4081
68.6459
67.6389
62.2292
62.5639
63.632
67.6495
65.075
63.1688
60.9306
65.9836
63.2194
62.8244
66.8365
65.6533
63.7058
63.3272
57.3531
55.4353
52.9613
67.5073
68.2136
70.0466
68.215
64.9072
62.8619
61.5394
64.8071
60.1879
57.0751
65.9391
66.7749
67.1027
67.8943
68.9037
70.2213
67.2766
62.5953
63.9286
55.5195
67.6008
69.469
66.1314
67.3501
68.5554
65.638
63.4084
65.3186
60.9536
59.889
69.4517
67.7494
67.6995
68.6267
69.2404
65.7055
63.4517
64.7631
59.7456
55.7618
66.0569
65.216
63.1197
61.8433
62.5923
63.3566
60.7831
59.753
58.6335
50.4748
66.8234
69.2492
69.7066
69.3778
67.2274
63.572
64.2896
61.6045
61.5699
54.1736
65.387
67.5569
67.7643
65.4027
65.2402
65.3665
62.7929
59.4111
59.6943
55.5285
63.6795
62.7421
64.4309
63.3019
66.2785
67.5899
69.2782
70.4324
64.0973
56.6198
66.55
66.3862
64.5787
68.6968
68.4182
69.4903
65.1339
61.2631
57.4447
58.3159
66.667
69.3041
68.2853
68.1239
65.9879
65.8894
67.3384
68.0054
68.7414
63.037
64.9643
65.4185
67.293
69.0896
68.6812
73.0404
65.1065
67.1752
61.5635
55.9463
66.7711
67.0728
69.2205
66.4016
66.9932
67.6449
68.2328
64.3315
62.4966
53.8478
67.6507
63.6923
62.3709
65.2148
66.0642
64.4181
62.62
59.3771
60.2128
59.1277
67.2459
65.0668
61.9493
63.0381
62.5819
62.5356
61.9846
63.0605
57.8249
50.828
66.4998
67.1534
65.5444
65.4484
65.4671
63.548
64.3695
60.4254
58.383
59.4934
67.7382
68.9189
68.2162
67.8587
67.2776
69.4231
65.4397
58.4094
59.6243
55.1466
67.0537
66.2451
70.0894
68.8628
67.7598
68.3002
71.2292
66.0539
66.5872
59.0478
66.967
64.5835
61.5383
63.7645
67.4973
67.3091
69.5167
70.9859
65.0373
55.5204
68.8934
66.0934
68.9655
66.9615
65.6602
66.2897
67.3906
68.6107
65.3814
57.8385
69.2129
68.5008
68.59
67.3567
63.8175
62.9802
60.7741
58.2567
53.7986
50.5535
66.772
66.7581
68.8714
69.1154
67.003
68.684
68.8069
68.9078
64.4607
56.8332
67.2152
68.5507
68.1908
68.4612
67.6188
65.0409
65.6982
65.0521
61.3557
53.7012
68.1713
68.8997
66.8113
69.8222
69.5289
69.9667
68.7178
66.8716
63.5115
60.3026
65.2052
68.5187
69.5429
67.794
67.1513
66.0797
65.6337
61.8643
58.3241
56.759
65.2494
64.5952
65.7149
67.3809
69.6122
70.3558
67.5648
68.1456
66.9587
58.865
69.6067
69.5227
69.2629
67.674
65.5178
66.1684
64.1972
64.4884
61.7615
58.1997
66.0043
66.6056
64.0416
66.1052
65.1486
63.9243
65.3411
66.8405
70.4829
62.2533
66.4609
65.8564
66.7494
67.38
66.309
63.2706
62.7123
61.6943
57.9562
48.7367
65.1518
65.5453
68.9937
69.1481
66.3059
66.9865
69.0105
63.9511
57.671
50.1164
66.2784
66.1608
65.8844
67.1729
67.0471
67.4722
69.606
67.2952
60.9852
55.695
68.9702
65.7013
63.8253
64.8298
64.0919
63.533
63.6111
66.0593
66.246
60.993
66.7492
65.787
67.7468
66.5823
63.9019
59.7555
60.8168
62.13
63.8937
62.6232
68.5042
71.0237
69.6421
66.598
64.2995
68.2188
65.3954
61.025
61.554
59.8477
67.1622
66.4121
67.5927
68.529
68.7382
68.1679
64.6623
60.8222
62.2062
57.499
66.3083
68.7772
71.0786
71.9112
71.1314
70.0135
66.9873
66.1218
62.2601
58.6737
65.9882
64.4297
65.9732
68.0307
68.1802
67.8943
64.9876
63.3367
57.2071
60.2989
66.1648
65.3933
63.5324
62.0957
65.9426
63.0836
59.1283
59.357
57.4023
56.6796
65.8102
64.2519
65.9971
69.2268
65.6213
66.3814
66.3153
67.9928
66.3205
62.1401
68.5124
68.4188
66.9351
67.2301
67.9807
70.8114
68.0693
66.7685
65.9868
65.8637
65.3018
65.0306
64.039
63.0897
65.3456
65.1742
63.3566
60.4693
59.6556
57.1244
71.9798
73.1313
69.8053
69.3418
64.5186
65.116
66.6317
67.5179
61.1752
57.3858
67.5343
68.2585
69.7357
67.5518
67.6848
67.8429
68.2052
67.2657
61.3247
57.9463
67.208
67.2992
67.6251
68.0836
68.4493
66.8582
65.2346
61.35
60.9862
58.0578
67.4365
66.9037
63.7808
63.5506
67.1889
66.6871
66.6144
66.6859
63.1546
60.9643
65.8015
65.7031
69.8215
68.8853
65.3844
65.4537
66.1975
61.8438
59.5419
62.1013
65.0069
65.3502
67.6912
64.6948
64.3505
63.4247
63.8627
64.803
64.045
66.0154
67.0295
65.011
64.5749
66.6046
67.981
65.5322
63.8931
63.7147
60.8216
64.6599
64.9142
64.9385
64.8431
65.7645
68.5032
66.408
65.6331
69.0549
66.815
58.8006
68.5051
68.1858
67.5716
65.7808
64.488
65.1007
63.2602
62.4369
61.2791
54.8163
69.3867
69.8408
70.5294
69.4347
67.009
67.7042
64.0854
60.4697
58.2402
56.4897
66.153
65.6761
68.4643
72.0793
70.439
67.5173
65.993
65.847
65.3406
64.1527
65.4034
64.3385
64.9732
64.7725
67.936
70.6536
66.5698
65.8266
62.8496
59.6637
66.9293
68.0161
68.8117
67.7921
63.8764
64.8193
64.3115
65.7274
60.2257
57.8322
67.4546
69.3793
73.7357
72.2649
73.9151
73.8846
69.6062
68.944
62.6798
67.5193
66.2512
68.1138
65.2621
65.7026
66.6491
66.7721
67.7531
70.0712
62.9208
61.1592
67.4429
66.4516
68.6224
68.0949
68.3044
67.2642
68.0608
64.2669
59.8803
58.2793
66.5687
67.3457
66.7927
66.3414
69.5372
69.7684
67.4229
67.0784
64.0881
60.1445
64.0235
63.1652
66.1035
68.877
69.2546
68.1367
65.6807
67.7701
65.6785
62.4584
68.5117
67.7339
68.7894
65.874
65.9199
69.7289
70.3194
65.4625
64.1137
62.9233
64.2941
62.373
64.2723
64.7279
67.7793
67.6495
72.5201
70.4271
68.8281
67.4906
68.7607
70.8005
68.5411
68.1603
66.0261
64.578
65.905
67.7715
65.546
66.6931
67.7479
69.672
70.7211
67.6112
67.1763
67.0452
67.0724
65.1324
66.4353
66.1618
65.82
65.2829
69.252
67.615
69.6003
70.7341
67.6753
66.2698
65.5732
63.5622
67.2395
65.9159
65.4045
67.3601
67.4962
69.1871
64.8201
58.5308
58.9754
51.9096
67.8958
70.9555
69.954
69.4324
69.8142
67.6833
64.4641
61.3271
60.5154
56.7933
67.8815
69.6853
68.7069
67.2538
65.3706
65.3984
69.7989
63.2956
60.974
61.9089
64.6077
63.3804
62.8846
65.1851
68.4198
66.9922
63.8179
57.631
61.2763
55.5906
67.5828
68.4308
64.4076
64.6335
64.6305
66.8141
69.0164
64.3944
61.3081
55.9486
68.1785
71.5401
68.4003
67.4906
68.4155
66.9807
63.1737
66.2717
66.172
65.2272
64.9172
63.8882
65.4456
63.0106
63.6238
65.8504
62.6743
63.1355
64.2716
63.1221
65.7993
66.1274
67.4772
64.9513
64.1528
63.2481
62.995
66.3961
62.0754
62.7147
66.8546
66.5331
65.4854
63.8048
62.1149
64.6636
67.726
66.2648
60.7886
62.1714
69.9516
69.9599
67.1192
64.5772
60.8188
61.9482
62.0146
60.3457
64.2062
60.4814
70.5112
74.8893
69.6273
67.6504
67.0481
66.3171
62.5621
62.1589
65.2806
61.7831
65.0491
64.8215
67.0795
67.9632
67.9624
65.3977
69.4817
67.0582
72.993
70.3271
64.798
66.7255
65.5612
65.0962
65.5569
68.6723
67.3972
67.4745
62.0568
63.4683
66.3242
65.7093
65.2267
65.1322
62.0234
64.5313
64.9965
62.8761
62.1668
59.9561
64.3219
62.6544
61.9877
66.9874
69.9517
72.0323
74.6845
69.3498
74.6851
74.8661
66.0674
64.1071
62.9623
65.7459
65.7713
64.6708
66.7315
63.5134
61.4515
66.2515
64.5833
66.7412
69.0383
65.9306
62.5114
65.0019
65.1218
64.7854
60.4239
55.581
65.7842
69.4038
66.1461
66.3597
67.2416
64.8768
62.4104
62.7723
64.5119
62.5811
66.2932
63.9135
63.6382
62.5453
60.3593
60.121
58.165
58.9473
59.391
63.6954
68.4649
68.6349
69.0757
69.7422
69.1729
67.4638
66.7954
63.5559
56.3763
62.7568
64.417
65.2924
68.3595
69.3223
66.0628
69.1646
64.2092
69.0783
67.9505
65.7296
69.2306
69.0951
67.145
66.5083
65.7342
63.6521
63.3878
64.6524
67.2765
60.1997
67.8604
67.5343
68.4536
69.4692
71.7078
68.367
68.8504
66.4739
64.3552
53.2692
65.8037
69.228
67.9438
63.8459
61.7343
64.4459
63.8129
60.7591
60.0302
63.524
66.0374
66.9642
64.9106
65.2865
65.0875
64.473
64.5235
66.1621
61.9326
59.2174
69.2913
66.5308
66.9564
66.4091
66.0721
66.4993
66.0821
58.5395
58.79
56.7116
66.9154
68.56
69.6698
67.6284
64.1869
62.8815
64.9998
62.9621
66.3131
57.4163
66.5588
67.0951
65.4424
65.2751
68.6642
70.2061
70.0226
61.4784
63.1906
67.0952
66.5943
66.0164
63.7988
64.4092
64.5466
68.134
65.0498
68.8968
64.5321
62.4767
65.7417
67.0382
68.1609
70.7873
71.8093
72.452
72.5045
65.5944
67.2135
67.4334
67.8421
68.8517
69.1215
65.7429
67.5197
64.5569
62.9908
62.7129
64.3461
65.5474
68.132
71.4562
69.3089
66.9623
65.9025
63.5132
64.8346
67.1543
64.1987
64.2751
69.0466
70.6888
67.7728
64.6486
68.4293
71.2443
68.5407
63.4577
65.03
64.6676
64.0829
62.5875
67.2633
70.382
71.1068
72.187
73.3499
68.0374
62.3183
62.6986
64.3744
65.3927
62.4185
61.6074
66.2546
64.8356
65.2349
65.4011
63.1891
64.0901
67.1463
66.2565
65.6115
66.7124
61.4878
60.4039
60.6743
65.3178
65.5895
64.8562
66.8811
68.6805
67.7305
66.9002
64.1919
65.9815
59.4301
62.7198
60.8708
57.5596
69.0377
65.9353
65.8724
66.2803
66.7174
63.903
63.7781
65.8736
65.9596
63.0888
67.03
70.8732
69.4228
64.7867
66.2922
66.9233
66.3168
64.1551
64.6893
60.2204
68.0515
66.2065
66.8899
67.6425
70.5425
72.4874
70.5898
67.4278
61.7651
58.2983
67.3047
63.1204
66.7265
69.7494
69.8806
63.0698
65.8433
68.951
63.088
61.0718
65.7815
65.2978
66.7769
68.0963
69.281
63.6086
67.4537
63.4949
69.5582
69.1239
68.5515
69.9939
68.7806
67.8927
67.1519
65.987
67.1299
69.6926
72.6612
70.1753
67.5362
68.3089
68.586
68.2727
68.061
69.1751
70.1836
70.986
66.5858
68.6568
65.7623
64.0246
65.2924
64.6617
63.9218
66.1421
64.2775
65.0752
67.4073
63.4208
64.0668
62.3233
65.9542
64.325
67.1675
64.756
68.7734
68.0969
68.4306
67.1834
67.6852
68.1582
68.0883
70.4836
70.8571
70.218
69.2786
69.3085
70.3422
64.5246
68.7324
64.39
62.0662
63.5608
65.2274
68.1627
66.2461
61.9776
63.9636
62.2739
66.5911
64.9805
68.7062
71.5297
68.3592
66.2226
62.9943
63.3421
63.092
64.9021
68.3869
68.0344
65.318
64.3102
64.5402
60.4658
62.4682
61.5963
68.1517
64.4525
66.0625
67.5647
70.3206
71.2286
72.8676
72.1087
68.981
72.0336
70.8985
67.8641
68.8859
69.9515
71.3028
69.6276
65.2397
63.8992
64.3679
64.5437
62.4667
62.7067
65.8078
67.92
70.2246
70.7974
68.9008
63.3301
69.0573
64.7828
64.7048
64.1106
67.3213
69.1636
67.6756
64.9818
65.1244
68.0057
69.7263
65.5149
63.7577
66.9262
67.4194
65.3351
66.9591
66.8824
70.3835
71.1181
65.2987
64.022
65.683
67.8524
64.5557
64.6297
62.5103
62.8013
63.0239
61.0117
66.0411
67.8581
64.3908
65.4603
68.09
69.8619
68.0522
67.6843
65.1477
64.7582
64.6628
65.1034
64.5429
64.1054
66.5954
68.3885
70.1909
70.6859
67.3126
67.1479
67.832
66.3191
61.1041
61.0547
67.2027
69.7348
70.9809
72.7465
73.1299
74.5706
71.0982
70.3173
67.7091
67.1768
67.9286
64.9012
62.5856
62.9557
66.8467
67.4716
68.8009
61.657
60.2668
61.1998
68.9543
67.4094
68.5082
68.5388
68.4994
67.2693
66.3867
67.541
64.8498
64.58
65.4718
68.3762
69.2815
67.1769
67.3077
67.8885
67.2874
63.4069
66.5845
64.6931
70.021
68.8197
67.8939
69.3278
70.7015
71.9127
70.2558
67.4999
68.8276
64.7451
65.0513
66.1709
69.3104
69.8844
72.0143
70.4313
69.5195
71.2081
72.1341
71.2977
67.5203
68.0305
68.5472
69.4532
69.2867
70.3697
69.292
66.3934
70.2359
64.6084
67.679
67.624
66.7973
65.2779
64.7182
67.5925
68.0568
72.51
69.7931
68.6461
67.2289
67.2079
69.0987
70.6646
68.6651
65.638
62.4546
61.9424
62.8239
61.6374
65.1109
64.5837
64.5897
66.9415
65.5772
67.2863
67.2433
63.0442
63.4764
64.3523
66.0606
65.4964
68.6805
68.5643
69.1093
66.4734
63.7921
64.2364
61.7508
64.8303
68.0668
72.6928
71.3458
68.0638
65.327
65.8112
64.9189
62.9753
64.3169
62.9446
67.2381
67.7704
67.7101
67.1304
65.9194
63.0182
61.3238
62.278
64.1294
61.4286
65.5122
64.2888
65.2666
66.958
67.8439
67.8298
68.7907
65.0658
63.0354
63.0907
67.0468
64.9536
62.9243
60.0182
60.4477
61.2009
63.4727
61.8208
57.0589
52.1601
64.9777
66.75
69.9993
69.6416
69.3285
70.3338
66.3049
64.3854
62.6645
58.45
63.962
63.5573
63.9351
64.2873
64.4753
65.6636
61.6469
66.9486
60.2303
61.4261
66.468
64.048
67.8843
69.6501
72.3844
72.3632
67.9538
64.5074
61.5152
64.9053
67.8966
68.5837
66.0562
64.7211
63.6203
64.2937
65.1837
64.1738
66.2609
63.101
65.552
65.3445
66.8083
65.7155
66.2773
66.936
63.3471
63.6685
65.2396
63.261
67.881
67.3782
65.7933
66.8075
67.7721
67.2414
67.0287
65.1311
65.6805
65.5422
66.4391
67.0025
68.2982
66.6761
65.8872
64.6404
63.354
65.044
61.5581
67.1764
67.398
68.9958
68.5855
69.786
67.7188
67.0449
65.069
62.3511
63.5249
60.4657
66.8537
65.1111
64.7365
65.3464
66.0975
64.3706
64.4612
62.7219
60.9415
60.92
67.5746
68.3729
66.0529
65.7016
62.2059
63.0954
66.4818
67.6549
65.9072
63.2306
64.6304
66.2462
68.0555
67.7174
69.8841
67.0457
64.8386
65.7379
65.2078
61.9576
70.0847
71.2978
69.7104
66.0869
66.5416
71.4888
67.2358
65.2165
64.1526
64.5807
65.3833
63.745
64.3222
62.5743
61.9022
66.5673
63.7007
67.6168
64.089
62.5205
68.0789
70.0528
67.3105
67.5538
65.2146
64.8994
62.4248
61.2996
60.5972
58.6517
67.0675
63.5704
64.0206
64.8852
65.8889
68.0249
66.5608
65.3653
62.1979
60.0282
64.9641
63.5518
65.8441
64.9078
66.8085
67.7177
62.219
63.8727
66.8293
64.0567
68.7169
67.1084
66.6236
68.2139
66.5078
66.5359
67.5845
70.7718
67.6658
62.151
66.985
67.8154
70.1522
73.4332
69.2934
65.3399
66.7141
65.081
69.14
68.0004
66.0445
66.9835
66.9093
67.2797
66.8504
67.3371
71.5363
67.1273
65.2793
63.6472
69.4993
65.3973
63.4824
61.1165
65.6596
64.4979
64.9277
66.756
69.9137
64.0302
66.9179
68.4287
68.7028
67.0499
66.4789
64.6865
64.4076
60.344
62.5765
60.2478
67.1739
67.3181
65.5532
67.0446
68.0731
70.1595
67.6055
64.8397
64.3211
64.0036
66.0172
62.0059
61.0533
62.8844
59.9519
57.6972
59.3337
60.9068
62.8327
60.1488
66.1552
66.8934
65.3971
65.1524
68.9537
70.4768
70.196
69.4158
71.2224
66.9389
66.9275
67.188
68.6603
67.645
66.4672
63.7913
64.4356
64.4197
65.958
61.6606
67.5037
68.5394
68.7652
67.3731
66.3696
68.3341
64.8593
60.0824
62.6665
65.488
66.9138
67.1321
66.2744
69.6706
68.2495
65.2241
59.0473
61.6581
66
63.3903
69.5268
66.7128
68.0389
67.7007
67.3054
66.9526
66.5303
68.2539
61.6261
61.3
65.3611
66.0268
65.8939
65.046
67.6454
68.5329
67.1612
67.638
69.0885
70.9641
67.3864
67.4548
69.0451
68.2713
70.4409
69.6033
66.5173
66.0728
65.5806
61.5537
68.8886
68.4139
67.913
67.7788
63.9872
62.5625
63.2036
62.9659
67.3981
65.2283
65.0783
63.7929
62.4204
63.6379
66.8847
66.2158
66.1157
58.5015
58.475
60.1209
68.148
67.4473
65.8956
65.7464
66.5417
68.9314
66.0281
67.2262
69.79
67.4645
68.7716
64.0115
62.6118
65.0236
66.8433
66.9312
67.5209
65.7793
65.2299
67.3963
66.3203
68.1979
65.4827
66.3034
63.9593
65.1188
63.1079
60.9428
61.1125
60.2057
65.2929
64.3855
65.1009
66.4328
66.444
63.9865
62.6524
61.5165
60.6362
49.7687
68.486
68.6088
68.2549
68.9863
65.6783
64.5046
64.5791
64.7059
57.7788
51.2059
68.3206
68.9661
68.8821
68.7183
65.7402
69.0413
71.2663
66.5371
64.4652
63.4363
66.6059
67.2347
64.1614
62.2728
63.1649
62.5391
66.5952
64.1918
62.4599
60.3812
67.5256
65.2213
65.9474
67.7697
63.3482
59.7235
60.8163
61.4037
57.9834
61.2316
65.3531
63.3845
63.2357
63.0874
64.0929
64.1412
61.9128
60.6022
58.0051
61.1952
65.3009
65.064
65.807
65.8316
70.6607
69.3665
73.0634
72.9321
67.6107
66.954
66.5226
64.0397
64.8902
65.2649
66.1056
70.2939
68.9425
65.0204
66.8895
65.1326
66.6663
70.1623
69.5413
69.4048
65.3452
64.0445
64.7005
61.4568
63.5895
67.0161
65.2265
64.5527
63.7433
63.0464
63.7348
62.8699
66.3518
68.3805
65.6391
68.0871
66.3328
62.5686
63.6247
63.1815
67.9614
67.6296
67.3113
73.4987
74.9993
74.5197
66.0014
68.5591
67.234
66.1933
64.5166
65.5771
65.9297
62.9877
67.6286
64.9772
68.0919
67.3317
67.9304
67.7202
66.1185
64.021
64.1539
65.274
65.5846
67.3095
65.3271
65.576
63.6339
67.1103
69.3249
68.505
67.4619
69.5067
71.0792
69.3038
66.6174
67.1167
66.7687
64.9672
65.8867
61.9971
60.0382
61.0293
60.3134
62.8961
66.3467
63.3999
62.7261
61.725
63.6315
61.3079
59.4007
59.1479
60.7214
60.6356
64.5462
66.3008
69.6066
68.9459
66.4081
64.8025
66.0946
67.4074
65.4358
63.7231
68.3309
67.4385
66.3383
64.6119
68.1806
66.7087
67.1737
63.7271
60.8452
65.894
64.3567
63.9166
64.8083
66.4038
63.1115
67.8143
67.5468
66.7672
66.1845
64.0367
67.3482
66.876
69.7304
68.3874
68.6142
67.3533
63.6771
64.4627
66.5962
63.4642
67.992
67.1443
65.9484
66.6957
66.9306
64.5262
68.7899
70.5748
70.1257
71.6049
66.5291
69.6553
68.7823
65.1987
66.5056
65.0932
67.0877
66.5982
68.5686
67.626
65.9508
65.6779
67.0253
68.3907
69.9444
71.3418
73.2569
73.2515
76.1411
73.2797
68.6582
69.8331
70.9054
66.2602
64.9943
65.6595
60.6085
61.571
61.5498
61.2036
66.7197
64.2987
64.6434
65.5688
66.6676
63.6489
63.2535
62.5184
63.9249
65.9684
65.6231
67.2804
64.1342
64.3741
64.0333
67.063
64.2639
64.9279
62.5908
62.8567
66.5972
63.7094
63.315
65.0443
65.0973
66.0551
66.6318
62.8487
60.6355
58.949
64.0653
65.6926
67.572
66.1078
66.4135
66.012
66.2642
63.5535
64.7581
62.7549
68.7254
70.006
68.0691
68.1622
68.5769
70.3896
69.1574
72.7062
70.4319
73.5101
64.4847
65.8555
65.9596
65.0333
65.3486
65.0723
65.8888
64.2604
63.219
62.0519
66.4011
65.744
65.889
67.2126
65.8893
65.7604
67.8939
68.037
71.6523
66.7099
65.0054
67.9747
67.254
67.9886
70.0159
72.9855
69.8642
69.8084
68.1571
67.6728
68.3902
66.413
68.0563
69.0702
63.579
63.5945
61.8777
60.8023
58.6783
60.9212
66.1126
68.9757
71.0599
69.365
70.0607
63.8963
66.3691
66.2526
66.3638
63.9123
68.7992
67.2508
67.8536
67.1678
64.1863
64.6913
64.3855
66.168
65.9174
66.7641
69.2266
68.4566
66.5701
66.6887
66.4622
68.1859
68.022
67.2345
67.0211
66.0092
67.1888
66.8489
66.4223
66.3452
67.8256
66.1876
68.2851
69.0267
67.5401
57.079
66.3239
66.0786
66.3338
62.9924
61.6753
60.3007
60.903
63.9116
59.4641
55.1646
66.7145
65.0183
65.9224
65.9643
72.7432
71.5233
69.3953
68.7105
62.4575
62.0638
66.9182
68.8052
69.3553
69.493
70.1344
70.7044
72.1336
68.3067
61.6155
61.454
67.6474
69.0157
68.5646
68.3937
68.1931
65.0677
62.5107
58.7302
57.3829
58.6637
67.1742
65.7475
64.3551
65.8975
66.7218
63.7882
65.9753
67.8056
67.9275
68.7311
64.5657
66.1391
64.4636
66.1159
62.9989
64.9366
62.4961
61.281
64.4514
64.9229
69.0546
70.6486
69.3157
68.809
71.6188
70.3126
71.0005
69.9526
69.7053
67.4171
65.8542
67.5516
67.6381
66.9197
68.6546
70.1878
71.5857
72.9376
71.4372
69.2603
67.022
67.5916
68.9989
69.3164
70.5457
71.0966
70.9258
70.6263
72.3939
67.375
66.5947
66.2964
64.9849
66.2839
64.1621
62.1316
68.3478
67.8591
70.1996
70.2301
68.7782
67.4115
68.6394
65.4512
67.5723
69.3145
64.6316
66.4257
65.585
62.6892
65.4429
62.9995
65.0697
68.8462
67.5104
67.1364
66.3787
66.9286
67.3916
65.9512
66.4461
67.4247
68.1503
67.5958
66.5714
70.9125
70.4572
69.9368
65.5272
62.3979
68.0868
68.6085
67.6533
66.5802
65.2174
61.8693
61.4326
59.7778
62.5484
64.9712
65.0538
64.2831
64.4086
65.6068
66.0728
66.8839
70.4865
72.1327
67.8086
65.2721
69.0846
71.7639
70.3116
66.8964
65.8122
65.4474
67.6021
67.3097
68.4772
70.5159
66.4256
65.1475
63.5011
67.132
67.3857
66.4195
65.3193
66.2418
68.5093
65.7163
66.9207
67.8031
67.637
67.5923
66.5209
66.088
69.2371
66.6315
65.0801
67.5715
66.7606
65.7186
62.8899
64.9938
69.3007
68.2174
66.9963
67.5428
69.5347
71.8034
65.2439
67.0283
69.5773
70.3659
70.3354
69.3887
69.1918
70.2701
71.6962
67.5027
68.6358
72.9457
70.908
68.7739
68.6857
70.8403
70.4664
69.4137
66.9139
64.8691
65.9737
61.809
63.8243
64.5943
63.6503
64.6609
67.6365
69.9568
70.3116
67.1747
65.3886
64.8924
63.5714
66.3923
70.2145
67.3642
63.8615
62.6292
62.4333
63.6519
67.1513
69.3647
66.93
65.3002
65.1684
65.5734
68.7534
69.8061
68.3203
67.0524
66.6739
63.2678
64.7544
68.513
67.3155
63.4788
64.3175
65.9729
62.8841
65.4097
67.0165
68.6359
67.1222
64.4363
63.4948
65.1025
66.3131
66.299
68.1387
66.3101
67.013
64.8449
62.9923
65.8214
66.8241
63.6008
65.2677
65.5508
64.3127
64.6448
67.942
68.3079
69.4904
66.2554
63.3295
63.9597
67.3014
66.0093
66.4914
67.2661
67.7721
65.8315
62.4065
62.3892
62.8205
66.0305
63.274
64.1632
62.0753
61.8551
64.5736
64.7208
64.6512
65.8919
69.2011
69.8126
68.1063
70.4958
71.5942
71.1977
68.09
69.6516
71.0785
69.6531
69.263
71.8551
71.409
70.0934
68.4006
67.0992
67.5691
65.1796
64.3899
62.5807
64.4222
65.0152
66.6212
69.5763
65.9014
66.9167
66.9578
63.3889
64.2873
65.5195
63.2826
62.287
64.6217
64.1324
62.1768
64.1579
65.7917
68.866
66.4676
67.1467
66.6911
70.0744
71.7576
70.3212
72.997
72.6384
65.0533
64.4551
66.818
65.1993
65.5578
65.351
67.3082
68.2874
69.9042
70.5029
66.6147
65.5091
65.5068
67.7255
68.4767
68.2601
66.2894
66.5628
63.8639
53.4538
69.659
70.4442
70.3369
67.5542
63.682
65.0858
61.7799
61.8766
55.5919
57.2093
65.2903
64.4584
67.2721
68.1526
67.8993
69.2596
69.3475
69.692
74.6822
68.1334
67.368
69.1115
68.9251
68.9111
68.784
68.0158
67.5511
74.2917
73.0214
61.9946
66.4316
65.1057
64.0115
66.8805
68.3203
69.0164
65.5146
71.7266
73.3872
71.0037
66.795
69.6186
69.1581
66.1462
63.9247
63.6999
65.8633
62.6357
65.3421
63.0499
67.8504
69.5976
68.8219
68.4091
71.8058
70.7183
65.9547
66.3831
63.1454
62.7692
66.8336
66.2621
65.4932
67.7863
65.605
65.2712
66.4644
70.2918
69.0419
68.5107
68.5145
67.1484
67.8595
66.9184
64.6092
66.4472
65.172
69.3977
70.3339
69.2521
67.6888
68.3335
65.0292
66.3464
64.8933
65.6646
67.5259
67.3685
66.1478
68.0767
68.0407
69.5958
73.2588
72.4564
71.4753
69.2283
65.1533
64.0948
68.3259
67.6506
71.1858
73.1676
71.1742
71.3119
71.0292
68.5321
67.3779
67.1478
62.8175
60.5708
64.3811
65.5631
66.2367
65.427
67.5286
69.3099
68.1761
65.8998
65.8818
65.26
67.4009
63.9891
66.5082
66.9322
67.743
65.6487
67.5022
67.6572
65.4814
68.7759
66.2336
63.6441
62.196
63.4809
64.5407
62.306
64.9297
68.6898
65.2498
65.6688
68.5258
71.68
69.191
68.3682
68.9678
69.4289
67.1632
67.8368
67.3061
64.76
65.4917
63.875
65.9816
65.6565
65.2574
67.5255
69.7158
69.3457
67.6999
68.2628
65.9967
64.9365
65.6811
67.9695
68.993
68.0532
68.8436
69.6187
67.8623
68.742
67.415
64.5788
66.5956
67.3456
67.2536
69.9708
72.4451
67.7818
67.2449
63.8335
66.3432
66.508
66.2313
65.936
63.2151
62.4906
62.2132
62.9828
62.4652
61.9106
66.5014
65.4458
67.1709
66.9889
69.5559
68.4012
67.7092
65.5192
66.4599
71.1927
65.4062
66.3787
68.7292
70.1344
71.2808
72.0699
71.6511
70.7503
70.0734
66.5404
69.7066
68.7957
64.653
65.8791
65.5166
65.6092
65.8235
69.1113
71.2078
74.7838
66.5806
64.097
64.2295
62.6745
63.05
62.0705
62.5658
62.2585
63.4953
61.8137
66.5865
68.5162
74.3688
76.3547
73.5542
70.4795
71.9115
70.4654
70.8241
72.9864
66.614
68.3871
65.91
65.8937
70.0064
69.9502
71.921
73.5049
72.0759
71.7492
68.1364
68.3755
72.4159
69.3407
70.802
70.1581
67.8086
67.085
64.9649
67.1129
68.6788
69.7935
70.4908
70.7665
69.3714
69.2398
70.6046
70.408
71.0422
69.536
67.7405
65.3138
65.9438
68.0762
64.5163
65.6996
63.3316
62.7279
64.8529
63.2419
68.19
68.3451
69.4506
69.1871
69.1905
67.7464
68.3212
70.093
67.8058
65.7459
68.4983
67.7278
69.3435
70.9215
72.3795
71.3862
69.7024
65.0204
65.2022
65.1161
64.8371
60.7774
62.0282
61.3232
65.7646
64.2601
64.7929
65.0709
65.9964
64.3136
65.432
67.0061
68.7605
68.1344
66.7896
66.713
68.5204
68.8864
70.4739
69.1245
64.5493
64.6312
64.8221
66.4231
63.1533
63.9269
62.7348
61.1714
60.17
61.9108
66.6861
65.6907
64.277
64.0707
63.6033
63.5697
64.3353
66.3611
64.7907
65.5959
66.527
67.1967
67.2643
66.1907
70.2951
71.2052
68.0683
66.917
68.328
70.2785
65.9394
64.8345
64.6359
63.6277
62.1938
62.1525
62.4494
62.6252
61.126
55.5053
65.3515
66.8481
67.6693
68.8358
71.3944
68.8812
63.1883
61.9789
56.4608
55.1488
65.518
67.7151
69.4086
66.597
69.704
66.038
70.6252
69.9329
67.1897
60.2633
67.1476
62.8912
60.8882
63.4839
64.812
63.6759
64.4067
60.2475
60.0449
57.6253
65.7393
65.4185
65.396
61.8155
63.2523
64.8663
63.6271
60.7561
55.7814
54.1745
64.5761
62.5637
65.7668
66.976
67.2646
65.8298
65.3136
64.1008
65.6591
57.3499
66.2991
65.8895
67.4365
68.341
66.9856
65.6309
65.1998
65.2761
65.6183
62.4881
67.6475
69.5539
72.1361
71.4856
69.9412
71.8067
67.8064
67.7862
70.3371
68.1855
66.881
64.4226
64.1415
67.4226
70.4559
68.9848
68.8496
67.0863
65.6959
65.6449
65.7575
69.9081
70.3406
63.7824
61.1953
64.3711
64.984
64.5195
68.5275
66.3777
64.7816
62.7133
64.7853
63.1989
61.605
63.3897
68.0579
69.027
66.7886
64.8592
67.8275
67.0633
63.5642
63.2335
65.2729
64.9771
63.1187
64.0135
68.6301
70.881
68.4691
67.9925
70.0904
71.0108
68.9789
69.2968
68.8044
66.3537
67.4204
66.0225
67.7818
70.1558
66.8429
62.7866
63.9155
67.4504
68.4961
63.0639
60.6113
62.5937
68.6681
68.1719
65.5569
67.1849
64.0956
62.337
61.8393
63.2841
62.8832
65.026
63.8305
62.5777
64.756
66.294
63.6816
60.4518
62.6886
64.0272
62.7349
63.3701
68.2543
67.5767
67.8313
62.3214
63.7938
65.1265
61.7558
58.7766
62.8772
61.4821
67.0976
70.2174
71.8988
69.6959
67.6922
66.4557
67.6722
67.4052
66.9881
66.6884
66.8747
65.8241
66.4464
64.69
67.1662
62.5823
64.5397
67.0851
68.5818
68.399
68.7768
69.5284
62.5676
61.3706
61.6884
63.8778
64.0734
61.6115
62.9198
65.4664
67.072
64.9542
68.3788
66.1676
65.3489
65.7564
66.2461
68.3268
66.7852
64.2638
69.9837
72.0938
71.9028
71.3861
71.7275
68.5499
65.955
64.2682
65.6885
67.1693
69.0715
69.4041
71.9192
72.793
72.4348
75.0182
74.9991
70.6948
67.1347
71.134
64.9765
65.477
65.527
67.062
68.289
66.1014
66.5196
64.705
67.8094
66.4203
69.4527
69.0698
67.9056
64.6168
62.5318
62.0605
61.6098
63.0888
64.9011
64.3466
65.7626
64.808
65.1499
65.2202
62.2637
62.8392
65.4826
68.5412
64.7557
68.6781
66.778
67.1119
66.7742
66.9785
66.0307
65.9703
67.6315
62.0027
64.4258
62.8961
68.4754
68.1643
67.9162
65.2191
66.164
67.207
68.4288
69.4266
70.2103
71.4839
65.4526
67.8284
65.4151
64.2573
65.5787
65.3455
64.4316
63.7618
65.39
64.9236
67.2394
65.0632
66.4351
66.5023
66.9474
66.8495
66.5381
66.945
67.8044
66.1215
65.0868
66.1856
65.5853
63.9423
62.9446
63.8289
62.894
65.4513
68.4994
69.5076
66.4292
70.0198
70.7109
74.6558
73.3976
70.8086
67.849
66.841
67.4257
69.1142
66.9936
65.7644
65.8664
65.5621
64.5352
64.9221
65.842
65.8407
66.8701
67.5436
68.3574
69.2197
68.4412
69.3987
69.0809
69.3037
68.3683
68.9142
67.4534
69.12
63.7131
64.647
64.6637
64.4757
65.4298
64.5633
66.4718
66.0346
65.4533
66.7915
65.9399
63.586
65.8794
68.2468
68.0884
68.4062
70.6181
70.9757
69.6502
68.9432
66.5447
67.6768
65.1224
67.6173
66.8517
63.6605
64.2973
61.8241
56.3172
52.5449
67.9298
70.2437
70.9269
66.083
65.6907
66.0535
66.3644
62.9655
58.0108
52.8662
64.8394
63.8882
62.3781
65.0167
64.2441
68.3225
67.8119
67.945
66.794
61.5129
69.035
73.152
72.5754
71.9862
69.1592
65.3409
64.1578
63.4603
66.0248
57.696
64.8815
64.8813
63.6537
64.4671
65.2273
68.3749
67.6265
67.5266
68.0359
65.4913
70.5449
71.0973
75.6804
73.0783
69.3544
66.5802
62.566
66.0035
67.9331
69.2277
69.5113
68.7193
67.128
66.5891
69.0346
68.6353
67.7789
68.3449
67.852
65.6495
65.945
65.2924
65.4863
66.2444
64.971
63.8754
65.853
67.956
65.88
66.0161
66.1978
67.6457
64.414
66.5342
65.8934
65.7857
62.4456
62.7425
61.5445
63.2949