/*--------------------------------*- C++ -*----------------------------------*\
| =========                 |                                                 |
| \\      /  F ield         | OpenFOAM: The Open Source CFD Toolbox           |
|  \\    /   O peration     | Version:  2.4.0-MNF                             |
|   \\  /    A nd           | Web:      www.OpenFOAM.org                      |
|    \\/     M anipulation  |                                                 |
\*---------------------------------------------------------------------------*/
FoamFile
{
    version     2.0;
    format      ascii;
    class       volScalarField;
    location    "5e-05";
    object      meanCollisionSeparationAr;
}
// * * * * * * * * * * * * * * * * * * * * * * * * * * * * * * * * * * * * * //

dimensions      [0 1 0 0 0 0 0];

internalField   nonuniform List<scalar> 
77760
(
0.00188919
0.00123316
0.00147241
0.0018352
0.00124474
0.00129121
0.00154812
0.00137815
0.00113989
0.00154076
0.00157297
0.00135575
0.00163835
0.00142831
0.00141148
0.00140057
0.0016445
0.00143801
0.0011368
0.00144771
0.00182221
0.00113539
0.00131432
0.00116845
0.00119904
0.00111283
0.00149492
0.00143744
0.00144112
0.00142088
0.000880107
0.00158837
0.00152909
0.00122887
0.00143348
0.00127203
0.00145395
0.00148208
0.00126489
0.00112654
0.00173533
0.00171028
0.00105162
0.00121938
0.00128906
0.00178777
0.00165974
0.0014085
0.00131005
0.00139039
0.0012231
0.00135704
0.00167193
0.00169719
0.00160665
0.00136252
0.00120712
0.00161851
0.00157641
0.00167584
0.00116437
0.00193756
0.00118655
0.00115318
0.00123655
0.00154021
0.00171994
0.0012998
0.00176694
0.00140783
0.00131369
0.00153814
0.0013802
0.00164587
0.00164943
0.00167183
0.00124443
0.0014557
0.00116765
0.00151878
0.00137847
0.00108713
0.00117805
0.00135099
0.0016261
0.0014236
0.00129924
0.00115197
0.00177459
0.00134823
0.00160158
0.00139034
0.0015584
0.000998349
0.00154425
0.00127311
0.0014589
0.00132826
0.00157289
0.00152151
0.00114063
0.00135367
0.00159645
0.00147305
0.00127257
0.00112557
0.00143519
0.00119753
0.00135829
0.00129172
0.00151271
0.00133802
0.00116562
0.00127806
0.00148205
0.00130805
0.0012675
0.00105525
0.00117937
0.00115241
0.00114933
0.00129226
0.00157645
0.00122816
0.00145783
0.00176831
0.00124954
0.00115441
0.00123886
0.00159347
0.00125883
0.00147165
0.00136284
0.00152348
0.00141222
0.00189344
0.00130783
0.00148391
0.00106726
0.00130744
0.00123124
0.00162733
0.00129358
0.0014162
0.0016265
0.00109799
0.00149328
0.00108574
0.00147177
0.00140764
0.00163347
0.00148775
0.00136856
0.00152052
0.00128297
0.00156205
0.00122348
0.00137091
0.0011112
0.00160692
0.00127974
0.00141685
0.00110344
0.00162043
0.00128297
0.00204284
0.00157234
0.00122978
0.00125298
0.001347
0.00131511
0.000865688
0.00155654
0.00125347
0.00150871
0.00116582
0.00153944
0.0016182
0.00144584
0.00135483
0.00139535
0.00106811
0.000991698
0.00140566
0.00125166
0.00104067
0.00120626
0.00148994
0.00113813
0.00120324
0.00124742
0.00137515
0.00143624
0.00127187
0.00126274
0.00163607
0.00161073
0.00119172
0.00129444
0.00152218
0.00136472
0.00153305
0.00147959
0.00179168
0.00142497
0.00132968
0.0013425
0.00127308
0.00137245
0.00138082
0.00108512
0.00126494
0.00184986
0.00145732
0.00157992
0.00114075
0.00139604
0.00132038
0.00157014
0.00147598
0.00150012
0.00132431
0.00157463
0.00141004
0.00124913
0.00153604
0.0012037
0.00159581
0.00129921
0.00121676
0.00170378
0.00154787
0.00139385
0.00147326
0.0015948
0.00123829
0.00133708
0.00102279
0.0012634
0.00151088
0.00151794
0.00132921
0.00110196
0.00159851
0.00146763
0.00157847
0.00149737
0.0019154
0.00156931
0.00156973
0.00131582
0.00128561
0.00205153
0.00161375
0.00173247
0.00138516
0.0010686
0.00177602
0.00121518
0.00153506
0.00136153
0.00144799
0.00153402
0.00145243
0.00147064
0.00167056
0.00113433
0.00138472
0.00125875
0.00158329
0.00163091
0.00161482
0.00146046
0.00175514
0.00173197
0.00127311
0.0011434
0.00126901
0.00147408
0.00131364
0.00109608
0.00106802
0.0014583
0.00138755
0.0012264
0.00126502
0.00139543
0.00155157
0.00135401
0.00160301
0.00149253
0.00146112
0.00138775
0.001217
0.00117325
0.00109806
0.00113797
0.00109737
0.00146236
0.0015135
0.00132229
0.00107815
0.00147376
0.0014571
0.00128903
0.00123377
0.00138016
0.00149919
0.00150666
0.00149011
0.00146532
0.00171251
0.00156469
0.000919418
0.00133905
0.00134072
0.00128581
0.000912247
0.0014844
0.00133317
0.00173595
0.00161663
0.00174534
0.00165069
0.00145608
0.00115414
0.00105088
0.001295
0.00143657
0.00147868
0.00128374
0.00148685
0.00146606
0.00133351
0.00119152
0.00127526
0.00166226
0.0013844
0.00168286
0.00165887
0.00152425
0.00147587
0.00162735
0.00127671
0.00104826
0.000931675
0.00137278
0.00136498
0.00118075
0.00152202
0.00148526
0.00153382
0.00136302
0.00121023
0.00139093
0.00110986
0.00118245
0.00154541
0.00131678
0.00131631
0.00124306
0.00121177
0.0013261
0.00155956
0.00134559
0.00133478
0.00166448
0.00162892
0.00141156
0.00145303
0.00131733
0.00132141
0.00140281
0.00102409
0.00143599
0.00161264
0.00147665
0.00173561
0.00111362
0.00129164
0.00134284
0.0016321
0.00152368
0.00128576
0.00190816
0.0016749
0.00186624
0.00149628
0.00130447
0.00155362
0.00150766
0.00104377
0.00199593
0.00145434
0.00165574
0.00168588
0.00143295
0.00107515
0.00184185
0.00151911
0.00111676
0.00176602
0.00114647
0.00148951
0.00156946
0.00131527
0.00137342
0.00154312
0.00161228
0.00144337
0.00166486
0.0010149
0.00136578
0.00152282
0.00126476
0.00125638
0.00126916
0.0014151
0.00143422
0.00180627
0.00142354
0.00138374
0.00144179
0.00147667
0.0012927
0.00149071
0.00143196
0.00167125
0.00169744
0.00118121
0.00153262
0.00143345
0.00108699
0.000970864
0.00146983
0.00139266
0.00166265
0.00135826
0.00122914
0.00129
0.00159528
0.00137391
0.00151924
0.00135356
0.00120188
0.00163254
0.00128373
0.00108915
0.00132464
0.00163318
0.00143466
0.00128885
0.00150152
0.0017352
0.00151699
0.00126814
0.0016415
0.00160303
0.00147667
0.00134757
0.00162058
0.00143413
0.00134452
0.00116526
0.00146945
0.00140723
0.00149154
0.00148669
0.00123297
0.00157333
0.00100712
0.00115832
0.00129232
0.00139938
0.00140167
0.00130485
0.00165951
0.00131656
0.00137275
0.00129478
0.00168001
0.00143001
0.00134692
0.00118466
0.00148882
0.00126122
0.00125907
0.00169479
0.00127525
0.00159636
0.00125293
0.00152657
0.00156715
0.00144339
0.00158344
0.00118298
0.00130031
0.00147962
0.001911
0.0016431
0.00135218
0.00117818
0.00133245
0.0014189
0.00166443
0.00122239
0.00175574
0.00125669
0.00139529
0.00127499
0.00131198
0.00118631
0.00124794
0.00161161
0.00119838
0.00146704
0.00114561
0.00129086
0.00144345
0.00144731
0.00170817
0.00142726
0.00132299
0.00157855
0.00137228
0.00125001
0.00116739
0.00146194
0.00139527
0.00119636
0.00142992
0.0014557
0.00151437
0.00139522
0.00145727
0.0012787
0.0012433
0.00142377
0.00122605
0.00170399
0.00106031
0.0013222
0.00113832
0.00116
0.0016591
0.00154993
0.00149062
0.00101625
0.00127117
0.00166608
0.00152897
0.00142646
0.00122467
0.00101852
0.00137198
0.00181037
0.00145133
0.00138465
0.00130208
0.00174859
0.00119224
0.00168666
0.00131308
0.00130539
0.00127544
0.00163349
0.00139894
0.00159626
0.00157206
0.00148872
0.00126668
0.00125578
0.00157581
0.00143801
0.00128832
0.00155933
0.00145836
0.00177735
0.00165819
0.00159924
0.00126749
0.00141737
0.00138377
0.00127102
0.0012911
0.00139843
0.00169893
0.0012114
0.00121281
0.00147338
0.00148922
0.00150499
0.00103769
0.00122288
0.00132624
0.00096838
0.0017086
0.00150188
0.00178151
0.00174526
0.00156843
0.00209273
0.00136985
0.00124499
0.00108541
0.00116709
0.00141037
0.00138021
0.00119733
0.00124607
0.00151808
0.00155772
0.00115097
0.00121522
0.00171747
0.00138136
0.00107375
0.00149963
0.00139313
0.00181635
0.00131065
0.0014085
0.00141906
0.00130486
0.00132205
0.00127099
0.00117843
0.00116386
0.00123063
0.0014667
0.00174103
0.00137376
0.00113053
0.00145447
0.00119764
0.00142905
0.00114289
0.00116866
0.00137638
0.00163094
0.00120284
0.00151561
0.00137251
0.00127734
0.00157325
0.00132089
0.0014405
0.00139864
0.00122468
0.00122781
0.00128699
0.00136446
0.00170218
0.00117974
0.00112141
0.00138637
0.00120422
0.00153891
0.00163294
0.00158481
0.00127599
0.00139532
0.00126069
0.00136496
0.00173647
0.0012954
0.0012803
0.00159642
0.00150565
0.00127118
0.00133901
0.00140296
0.00133895
0.00133966
0.00139547
0.00135885
0.00172271
0.00132908
0.00147036
0.00146821
0.00139058
0.000971824
0.00150127
0.00125755
0.00118485
0.00128036
0.00130828
0.00148056
0.00156384
0.00116578
0.00139789
0.00152712
0.0014735
0.00148998
0.0013912
0.00138962
0.00133128
0.00218771
0.00147019
0.00150708
0.00124886
0.00156405
0.00165997
0.00151469
0.00108942
0.00134543
0.00143522
0.00139177
0.00090012
0.00142546
0.00154089
0.00151794
0.00143629
0.00140322
0.00165115
0.00120089
0.00130856
0.00128681
0.00169087
0.00145947
0.00140344
0.00176701
0.00115548
0.0015687
0.00147778
0.0016776
0.00142482
0.00116408
0.00171942
0.00123115
0.00136492
0.00120059
0.00140575
0.00126376
0.0013647
0.00160014
0.00146409
0.00142904
0.00144715
0.00169082
0.00148568
0.000988643
0.00143131
0.00138589
0.00181734
0.00128663
0.00121887
0.00129049
0.00119288
0.00161305
0.00146434
0.00149262
0.00155492
0.00106489
0.0013285
0.00129347
0.00144495
0.00127567
0.00149317
0.0014178
0.00134946
0.00154362
0.00109899
0.0014421
0.00137127
0.00125022
0.00138974
0.0013206
0.00159542
0.00143986
0.00134382
0.00107013
0.00144246
0.0014249
0.00138534
0.00190895
0.00103921
0.00138369
0.00144509
0.00122722
0.00118666
0.00111456
0.0014463
0.00153579
0.00127747
0.00125479
0.00103933
0.00184779
0.00155019
0.00137524
0.00120047
0.00145988
0.00130222
0.00192752
0.0010631
0.00140339
0.00123461
0.00169046
0.00147919
0.00135344
0.00164237
0.00169353
0.00194246
0.00134839
0.0017012
0.0013268
0.00144919
0.00144408
0.0013885
0.00144989
0.00151891
0.00145894
0.00158216
0.00111411
0.0014445
0.0018121
0.00135642
0.00119612
0.00144282
0.00126067
0.00140693
0.000862392
0.00121544
0.00131568
0.00162376
0.00109369
0.00157806
0.00154141
0.00124103
0.00155764
0.00151108
0.0016259
0.00199055
0.00136314
0.00220696
0.0013179
0.00123452
0.00151959
0.00160308
0.00123823
0.00155124
0.00085274
0.00145973
0.00122885
0.0015466
0.00160447
0.00154737
0.00152781
0.00103823
0.00125598
0.00162551
0.00157416
0.0013583
0.00159422
0.0015738
0.0017647
0.00128073
0.00171059
0.00165521
0.00133181
0.00154657
0.00110829
0.00116822
0.00136395
0.00132969
0.00133001
0.00107107
0.00138895
0.0015269
0.00165689
0.00119582
0.00130925
0.00148138
0.00126187
0.00159572
0.000970269
0.00119157
0.00119922
0.00138383
0.00161353
0.00140978
0.00160369
0.00141167
0.00150764
0.00163536
0.00114872
0.00150826
0.00144322
0.00140044
0.00164494
0.00177735
0.00141828
0.0011438
0.00132383
0.00148575
0.00121118
0.00135346
0.00141859
0.00146109
0.00107016
0.00148091
0.00144883
0.00169559
0.00116023
0.00140854
0.00132984
0.00150936
0.00135135
0.0013041
0.00125405
0.00154039
0.00154476
0.0013767
0.00180696
0.00129406
0.00144645
0.00124912
0.00145082
0.00129842
0.00141647
0.0013436
0.0014369
0.00135517
0.00128006
0.00124225
0.0016716
0.00172249
0.00182176
0.00160471
0.00182198
0.00121945
0.00137489
0.00121267
0.00150817
0.00134324
0.00144663
0.00141643
0.00150577
0.00161082
0.00119712
0.00137362
0.00150172
0.0016362
0.00135915
0.00129758
0.00135492
0.0016717
0.00123307
0.00147778
0.00124006
0.00124643
0.00111908
0.00103167
0.00143394
0.00165175
0.00133605
0.00146705
0.00162752
0.00138998
0.00106549
0.00166302
0.00131223
0.00210643
0.00155112
0.00149331
0.00147059
0.0013847
0.00121341
0.00138701
0.00163262
0.00114824
0.00129355
0.00165522
0.00144211
0.00125124
0.0013351
0.00152331
0.000969936
0.00149671
0.00139712
0.00144824
0.0014791
0.00142876
0.00165318
0.0016712
0.00133056
0.00145333
0.00128494
0.00113064
0.00133363
0.00135366
0.00133958
0.00112005
0.00157401
0.00167291
0.0015533
0.00155597
0.00137818
0.0015772
0.00145464
0.00139868
0.00113267
0.00138433
0.00174056
0.00137698
0.00170268
0.0015321
0.00128853
0.00141544
0.00135877
0.00156869
0.00139027
0.0017919
0.00132583
0.00108607
0.00168696
0.00122178
0.00134172
0.00115973
0.00174186
0.00161292
0.00141847
0.00147059
0.00146158
0.00238172
0.0012237
0.00124954
0.00148158
0.00126549
0.00106523
0.00143376
0.00123927
0.00127009
0.00154906
0.00147837
0.00101409
0.00153542
0.00129691
0.00150669
0.00127892
0.00164678
0.0016314
0.00161815
0.00156593
0.00133008
0.0015239
0.00116567
0.00144915
0.0013964
0.00141589
0.00166926
0.0011182
0.00111976
0.00119604
0.0009648
0.00156758
0.00148198
0.00121771
0.0013135
0.00107483
0.00127855
0.00122789
0.00137098
0.00149138
0.00140233
0.00136213
0.00117457
0.00132748
0.00121156
0.00111717
0.00119395
0.00108712
0.0012524
0.00157831
0.00179629
0.0017312
0.00150233
0.00137214
0.00131992
0.00112287
0.00137436
0.00158074
0.00182629
0.00152075
0.00150114
0.00150475
0.00125594
0.00128918
0.00140219
0.00161787
0.000933705
0.00170736
0.00143162
0.00154575
0.00155087
0.00176455
0.00127025
0.00173694
0.00108739
0.00158356
0.00133699
0.00160301
0.00141719
0.00135976
0.00166386
0.00136034
0.00122425
0.00109925
0.00140578
0.00156437
0.00153388
0.00168923
0.00121147
0.0016778
0.00155063
0.0013713
0.00131955
0.00125749
0.00147457
0.00150395
0.00142414
0.0010093
0.00154345
0.00136338
0.0015006
0.00146548
0.00137892
0.00118313
0.00112244
0.00117239
0.00135297
0.00135907
0.00166414
0.00146999
0.00144482
0.00147876
0.00141339
0.00161353
0.00149002
0.00154504
0.00111343
0.00140723
0.00127234
0.00172128
0.00128593
0.00123674
0.00155439
0.00141021
0.00104371
0.0016264
0.00151764
0.00116409
0.00121322
0.00158791
0.00158977
0.00128401
0.00134815
0.00116559
0.00115775
0.0013998
0.00170507
0.00138285
0.00145004
0.00162014
0.00129526
0.00158317
0.00141046
0.00147865
0.00191778
0.0015813
0.00154797
0.00145736
0.00148954
0.00130261
0.00152574
0.00147234
0.00132102
0.00180317
0.0013928
0.00120966
0.00158162
0.00165214
0.00170287
0.00162813
0.00118401
0.0018745
0.0013563
0.00147123
0.0015541
0.00136175
0.00130996
0.00163431
0.00170079
0.00124655
0.00113414
0.00131034
0.00141821
0.00136681
0.00101641
0.00144537
0.00109284
0.00120431
0.00129575
0.00140145
0.00129711
0.00132715
0.00126981
0.00166487
0.001634
0.00126068
0.00142011
0.00102653
0.00164292
0.00164254
0.00146039
0.00157143
0.00156793
0.00121764
0.00138841
0.00145636
0.00188388
0.00138402
0.00115848
0.0013072
0.00212726
0.00109301
0.00154884
0.00115535
0.00148136
0.00118849
0.00135501
0.00173402
0.00125567
0.00113092
0.0016697
0.00142647
0.00121339
0.00157382
0.00163029
0.00110783
0.00154341
0.00147147
0.00150772
0.00138373
0.00133583
0.00149807
0.00136267
0.00152644
0.00143695
0.00129329
0.00207287
0.00121833
0.00131012
0.00138379
0.00092074
0.00169989
0.00145398
0.00135599
0.00130573
0.00114261
0.00141187
0.00117655
0.00182017
0.00141899
0.00122831
0.00116874
0.00138512
0.00162912
0.00152165
0.00100619
0.00160247
0.00106251
0.00143835
0.00130579
0.00133324
0.0015898
0.00142108
0.00153772
0.00178051
0.00120376
0.00122716
0.00161221
0.00170709
0.00139531
0.00151445
0.00132652
0.00145542
0.0014319
0.00100037
0.00142574
0.0012026
0.00118073
0.00150464
0.00130828
0.00106009
0.00134097
0.00119552
0.00111621
0.00110995
0.00138227
0.00124226
0.00131958
0.000947819
0.00128374
0.0011877
0.00184712
0.00122536
0.00109948
0.00138034
0.00137364
0.00130807
0.00122893
0.00147874
0.0012565
0.00143375
0.00124682
0.00146987
0.00131503
0.00128237
0.00121584
0.0015744
0.0014757
0.00112899
0.0013677
0.00182562
0.0015729
0.00120769
0.00108772
0.00121989
0.00145379
0.00178542
0.0016758
0.00164651
0.001275
0.00157264
0.001315
0.00146695
0.00149201
0.00149503
0.00124468
0.00123097
0.00141736
0.00111084
0.00138086
0.00140891
0.001181
0.00147059
0.00109099
0.00111731
0.00133497
0.00124369
0.00139326
0.00130326
0.00128541
0.00148425
0.00144137
0.00148336
0.00133618
0.0014721
0.00132775
0.0014134
0.00145867
0.00148614
0.00128668
0.00139526
0.000948566
0.00175141
0.0013347
0.00145851
0.00133151
0.00124461
0.00113734
0.00151009
0.00172083
0.00211443
0.00147305
0.00137041
0.00119257
0.00135451
0.00145915
0.00147973
0.00138286
0.00134131
0.00182978
0.00130694
0.00156276
0.0012875
0.00144571
0.00172576
0.00149847
0.00164435
0.00133656
0.00127952
0.00153999
0.00152561
0.00120619
0.00152637
0.00134612
0.00179086
0.00161337
0.00132805
0.00153393
0.00183672
0.00150118
0.00094043
0.00110932
0.00138675
0.00151019
0.00117812
0.00155879
0.00130971
0.00129019
0.00135807
0.00135815
0.00142434
0.00163348
0.0015738
0.00147609
0.00162231
0.00126689
0.00174785
0.00166109
0.00133858
0.00178849
0.00137168
0.00172446
0.00146807
0.00117207
0.00192491
0.00136734
0.00164871
0.00112599
0.00122538
0.00124885
0.00122075
0.00127722
0.00119889
0.00163243
0.00145686
0.00165044
0.00129229
0.00169085
0.00141191
0.00136226
0.00130352
0.00156615
0.00161942
0.00143326
0.00113808
0.00151515
0.00124849
0.00134259
0.00141713
0.0014442
0.00169785
0.00137947
0.00120139
0.00116953
0.000945638
0.00165798
0.00131644
0.00134312
0.00174502
0.00179592
0.00143759
0.00126456
0.00128805
0.00141928
0.00169707
0.00134205
0.00148787
0.00132343
0.000868234
0.00135992
0.0015932
0.00181541
0.00152416
0.00132651
0.00181609
0.00149733
0.00129465
0.00168635
0.00163016
0.00112594
0.00141653
0.0014585
0.00134311
0.00154668
0.00138665
0.0014443
0.00145604
0.00105308
0.00132363
0.00112554
0.00117597
0.00119309
0.00170632
0.00106566
0.00150416
0.00131442
0.00146405
0.0016737
0.00138465
0.00159782
0.00154199
0.00137994
0.00136126
0.00118017
0.00171134
0.0011972
0.0013392
0.00129757
0.00156442
0.00137973
0.00130102
0.00191475
0.0018943
0.00148296
0.00136173
0.00174697
0.00146137
0.0013295
0.00162602
0.00169041
0.00142571
0.00152854
0.00199495
0.00158221
0.00153833
0.001928
0.00156239
0.00134011
0.00122756
0.00142031
0.00149369
0.00126966
0.00131455
0.00135616
0.00140276
0.00172179
0.00154002
0.00126628
0.00143441
0.00138511
0.00156634
0.00129322
0.0016731
0.00164593
0.00136756
0.00134028
0.00150371
0.00169193
0.00139424
0.00134817
0.00126475
0.00138723
0.001614
0.00148159
0.00134081
0.00161325
0.00139591
0.00162115
0.00136647
0.00152452
0.00111097
0.00181418
0.00114295
0.00157626
0.00131647
0.00153089
0.00129754
0.0015003
0.00162215
0.00145311
0.00112525
0.00124538
0.0015409
0.00161834
0.00170058
0.00123081
0.00141965
0.00172606
0.00119038
0.00135594
0.00128749
0.00152124
0.00137693
0.00129829
0.00126403
0.00134335
0.00160087
0.00161824
0.00139935
0.00125461
0.00152956
0.00128111
0.00127493
0.0011388
0.00136049
0.00133718
0.00133833
0.00120987
0.00137699
0.00142716
0.00115895
0.00113654
0.00194394
0.00121147
0.00138643
0.00150435
0.00144427
0.00134045
0.00147832
0.00100377
0.00142026
0.00127819
0.00126273
0.00121656
0.00132582
0.00131733
0.0013911
0.00112464
0.00145076
0.00114097
0.00136051
0.00153419
0.00132965
0.0017442
0.00116537
0.0014846
0.00133421
0.00109895
0.00142378
0.00116147
0.00128801
0.00136483
0.0015618
0.00144849
0.00157961
0.00127098
0.00125432
0.00131578
0.00139643
0.00115232
0.00142335
0.0012383
0.00165094
0.00146653
0.00143369
0.00140304
0.00132634
0.00151323
0.00140421
0.00147307
0.00145096
0.00152883
0.00119024
0.00122366
0.00102347
0.00105342
0.00175644
0.00129633
0.00153295
0.00107305
0.00166201
0.00141955
0.00146571
0.00174758
0.00134659
0.00157328
0.00137843
0.00126364
0.000967163
0.00144557
0.00142017
0.001174
0.00180229
0.00138324
0.00146806
0.00136143
0.00107119
0.00168114
0.0017689
0.00159389
0.00159805
0.00149744
0.00164221
0.00157985
0.00116365
0.00118918
0.00130574
0.00145982
0.00117799
0.00133886
0.00158251
0.00141499
0.00129669
0.00115699
0.00150648
0.00186763
0.00141777
0.00101955
0.00125409
0.00117152
0.00130575
0.00101711
0.00160951
0.00164496
0.00112094
0.00154262
0.00120659
0.00169589
0.00187822
0.00139814
0.00130152
0.000994918
0.00123298
0.00124147
0.00140132
0.000833378
0.00111512
0.00134918
0.00134954
0.00106613
0.00153977
0.00134216
0.00104504
0.00121635
0.00174392
0.00143906
0.00191952
0.0016985
0.00125434
0.00157669
0.0011145
0.00118729
0.0013118
0.00144294
0.00146641
0.0014431
0.00155891
0.00158783
0.00158163
0.00135181
0.00167528
0.00153336
0.00139419
0.00157482
0.00124599
0.00168661
0.00133235
0.00157741
0.00152918
0.00196811
0.00162741
0.00139756
0.00143028
0.00189912
0.00149838
0.00140814
0.00134658
0.00150916
0.00181742
0.00136798
0.00154584
0.00133818
0.00126529
0.00140657
0.0012992
0.00106268
0.00104663
0.00134226
0.00208813
0.00123131
0.00126102
0.0011331
0.00119256
0.00132922
0.00130426
0.00146225
0.00127928
0.00126205
0.0013041
0.00118974
0.00123935
0.00128531
0.00138548
0.00145575
0.0012936
0.0014731
0.00173199
0.00140329
0.001389
0.00123841
0.00130274
0.0014678
0.00167731
0.00131887
0.00126668
0.0015112
0.00117734
0.0011506
0.00135115
0.00113134
0.00124514
0.00150724
0.00113959
0.00114528
0.00162678
0.00161611
0.00172937
0.00150207
0.00127924
0.0014327
0.00152921
0.00127391
0.00147469
0.00113786
0.00114994
0.0013306
0.00129044
0.00143885
0.00157173
0.00116023
0.00167212
0.00110026
0.00147701
0.00143114
0.00139423
0.0011902
0.00148622
0.00124695
0.00160751
0.00145578
0.00129971
0.00122718
0.0014852
0.00145755
0.00137774
0.00133213
0.00168807
0.00116873
0.00159728
0.00162678
0.00132996
0.00124784
0.00134692
0.00195428
0.00150427
0.00129685
0.00154747
0.00141655
0.00133353
0.00158882
0.00143423
0.00138898
0.000949072
0.00151148
0.00114613
0.0013042
0.00170535
0.00146233
0.00128063
0.00169062
0.001391
0.00126325
0.00133413
0.00142899
0.0013365
0.00152483
0.00135571
0.0014573
0.00170229
0.00141941
0.00170104
0.0014423
0.00149952
0.00146579
0.00136697
0.00154393
0.00130145
0.00141168
0.00138813
0.00156057
0.00122695
0.00124906
0.0013497
0.00145028
0.00138889
0.00127496
0.00144868
0.00113402
0.00177201
0.00151106
0.00111312
0.00152282
0.00128444
0.00147576
0.0015147
0.00114362
0.00130059
0.00141309
0.00108072
0.00161401
0.00189761
0.00140743
0.00130939
0.00152428
0.00125066
0.00160407
0.00152994
0.00148232
0.00158616
0.00132695
0.00156752
0.0010881
0.00121024
0.00110342
0.00174252
0.00151753
0.00138649
0.00105268
0.00141867
0.00142939
0.0016058
0.00154547
0.00132533
0.00139748
0.00142305
0.00160977
0.00120124
0.00125856
0.00128563
0.00149851
0.00139297
0.00140557
0.00107113
0.00178086
0.00150767
0.00140171
0.00138275
0.00154442
0.00119307
0.00124434
0.0012051
0.00144839
0.00165065
0.00129101
0.00112712
0.00151926
0.0013635
0.00125136
0.00166719
0.00141684
0.00139285
0.00156
0.00110553
0.00170712
0.0013875
0.0014138
0.000986344
0.00126381
0.00141755
0.00129465
0.00152832
0.00128655
0.00120415
0.00119081
0.00154443
0.00133954
0.00119107
0.00128433
0.00116137
0.0013418
0.00145402
0.00183636
0.00133212
0.000943996
0.00148756
0.0012497
0.00123415
0.00144945
0.00128879
0.00189999
0.00156059
0.00145035
0.00131096
0.00142655
0.00133948
0.00131297
0.00158221
0.00150705
0.00134446
0.000959126
0.00110943
0.00142387
0.00127844
0.00134273
0.00161048
0.00145768
0.00166931
0.00124162
0.000885829
0.00151878
0.00157929
0.00158293
0.00146644
0.00107058
0.00151763
0.00154178
0.00155798
0.00148833
0.00137381
0.00136686
0.00149841
0.0010584
0.0013471
0.00144336
0.00123862
0.00151175
0.00177217
0.00155808
0.00124718
0.00156033
0.00157739
0.00157745
0.00127073
0.00186887
0.000950946
0.00129834
0.00149771
0.00153322
0.00125357
0.00161372
0.00130997
0.00131434
0.00157507
0.00143528
0.00161547
0.00134602
0.00124131
0.00125258
0.00149305
0.00121806
0.00140493
0.00146317
0.00179424
0.00151474
0.00185203
0.00112248
0.00128087
0.00132337
0.00140719
0.00121804
0.00168409
0.0014448
0.00146452
0.00118017
0.00113258
0.00131909
0.00154352
0.00104152
0.00131261
0.00153329
0.00115242
0.00123806
0.00141918
0.00127248
0.00150942
0.0012786
0.00123216
0.0013797
0.00135449
0.00117552
0.00127838
0.00138613
0.00147112
0.00137312
0.00144831
0.00144796
0.00119985
0.00119001
0.00143933
0.000973068
0.00147376
0.00145417
0.00155399
0.00150919
0.00152029
0.00133281
0.00164005
0.00137093
0.00157023
0.00145192
0.00162321
0.00167904
0.00152498
0.00150727
0.00133088
0.00122536
0.00148425
0.00134935
0.0011186
0.00143043
0.00122984
0.0012497
0.00142155
0.0015948
0.00125475
0.00149451
0.00124352
0.00145665
0.00126944
0.00104676
0.00129683
0.0013485
0.00141403
0.00164815
0.00110207
0.00156697
0.001597
0.00132797
0.00116331
0.0015215
0.00126369
0.00134125
0.00127575
0.00160581
0.00141241
0.00128112
0.0011831
0.00129987
0.00128062
0.00137042
0.00133387
0.00126697
0.00137515
0.00152374
0.00163497
0.00112965
0.00143679
0.00138571
0.00118317
0.00152397
0.00128469
0.00128698
0.00166932
0.00135112
0.00145503
0.000997654
0.00143387
0.00126772
0.00126844
0.00125791
0.00154369
0.0014445
0.00135131
0.00134509
0.00107732
0.0013581
0.00100323
0.00133755
0.00155217
0.0013564
0.00151741
0.00162093
0.00137185
0.00163114
0.00146977
0.00140459
0.00131733
0.00120213
0.00136442
0.00154133
0.00122383
0.00205117
0.00143206
0.0014796
0.00100425
0.00149213
0.00119105
0.00134354
0.00110597
0.00100757
0.00117465
0.00106572
0.00150717
0.00158976
0.00168512
0.00167048
0.00130389
0.00138426
0.00120267
0.00147533
0.00184972
0.00107775
0.00173319
0.00149531
0.00140465
0.000897992
0.00114507
0.00118115
0.00186063
0.00205643
0.00131761
0.00147061
0.00134227
0.00121275
0.0011498
0.00140797
0.00165013
0.00134129
0.00149673
0.00119777
0.0017861
0.00148464
0.00133327
0.00126039
0.00123944
0.00142119
0.00161082
0.00152655
0.0014386
0.00121135
0.00142052
0.00136494
0.00118963
0.00163203
0.00125309
0.00121532
0.00123556
0.0013086
0.0011434
0.00141662
0.00161277
0.00139398
0.00135435
0.00127711
0.00107431
0.001146
0.00143744
0.00160305
0.00137961
0.00125254
0.00126484
0.00158063
0.00160622
0.00135778
0.00139787
0.00151071
0.00110934
0.00115489
0.00147383
0.00151236
0.00135445
0.00166238
0.00122378
0.0013322
0.0013963
0.00129474
0.00127175
0.00129195
0.00131102
0.00123013
0.00160066
0.00115272
0.00152401
0.0013451
0.0015003
0.00184458
0.00151675
0.00167804
0.00134448
0.00136026
0.00166251
0.00135745
0.00123006
0.00120672
0.00142877
0.0017228
0.00156788
0.00148303
0.00110671
0.00145184
0.00158533
0.00156737
0.00150065
0.00140279
0.00145429
0.00165223
0.000753998
0.00139392
0.00166053
0.00128643
0.00169198
0.00148506
0.00139677
0.00159631
0.0017051
0.00136462
0.00138219
0.00146642
0.00131481
0.00136209
0.00148612
0.00137562
0.00146207
0.00106674
0.00139933
0.00137311
0.00148526
0.00157011
0.00130294
0.00128935
0.00114207
0.00169861
0.00150843
0.00117073
0.00107345
0.0013314
0.00171898
0.00144353
0.00138363
0.00105982
0.00119298
0.00120595
0.00113393
0.00155787
0.00160039
0.00136956
0.00144621
0.0013178
0.00146572
0.00146276
0.00142566
0.00127208
0.00128896
0.00127703
0.00135604
0.00151022
0.0015177
0.00142801
0.00134631
0.0014698
0.00142904
0.00149484
0.00138055
0.00143428
0.00156559
0.00161181
0.00157515
0.00127435
0.00123847
0.00135274
0.00136781
0.00137043
0.00129265
0.00138622
0.00176236
0.0013938
0.00155613
0.00115679
0.00136111
0.0013275
0.00106995
0.00139271
0.00138948
0.0012644
0.00168706
0.00137799
0.00178168
0.00137603
0.00115506
0.00132992
0.0015583
0.0014913
0.00149754
0.00161793
0.00116876
0.00164182
0.00137438
0.0014401
0.00132305
0.00127108
0.0011856
0.00157828
0.00128761
0.0013462
0.00125543
0.00135457
0.00104941
0.0016425
0.00164918
0.00147375
0.00156321
0.00131981
0.00113169
0.00126122
0.00133972
0.0012795
0.00172136
0.00148581
0.00118764
0.00120424
0.00125866
0.000973933
0.00112895
0.00133581
0.00139515
0.00154774
0.00117575
0.00132636
0.00126265
0.0016172
0.00134744
0.00167849
0.00132075
0.000973175
0.00137794
0.0013487
0.00112913
0.00129176
0.00133805
0.00131934
0.00115502
0.00142359
0.00145594
0.00159178
0.00172134
0.00143987
0.00159328
0.00119277
0.00139862
0.00138361
0.00157661
0.00151305
0.0013069
0.00129076
0.00125023
0.00104811
0.00126953
0.00156189
0.00176663
0.00135678
0.00166584
0.00128943
0.00121851
0.0011584
0.0011174
0.00116385
0.00162884
0.00191007
0.00145939
0.00140716
0.00131873
0.00150442
0.00132005
0.00145996
0.00153565
0.00118941
0.00128289
0.00120154
0.00115762
0.0011762
0.00207857
0.00170271
0.00151182
0.00174913
0.00135936
0.00152192
0.00121629
0.0014276
0.00120438
0.00159524
0.00121319
0.00139285
0.00152887
0.00129789
0.00146171
0.00155275
0.00141153
0.00167474
0.00154526
0.00144458
0.00151122
0.00125373
0.00125098
0.00122715
0.00188329
0.00130917
0.0014696
0.0015758
0.00112389
0.00133441
0.0015673
0.00129176
0.00194934
0.00152712
0.00156173
0.00171672
0.00105295
0.00152368
0.00128353
0.00105194
0.00137435
0.00132352
0.00132504
0.00147648
0.00152306
0.001689
0.00109976
0.00112099
0.00108973
0.00122328
0.00113758
0.00147438
0.00131493
0.00146648
0.00119731
0.00137353
0.00119968
0.00130195
0.00142267
0.00140198
0.00108326
0.001256
0.001451
0.00155173
0.00135719
0.00145905
0.00157918
0.00138597
0.00135937
0.00157914
0.00127103
0.00138176
0.00111724
0.00154901
0.00128819
0.00127064
0.00122512
0.0015627
0.00152498
0.00128457
0.00136843
0.00119658
0.00139458
0.00142847
0.00133029
0.00135348
0.00149402
0.00122709
0.00153021
0.00153125
0.00219378
0.0011956
0.00167305
0.00139022
0.00149635
0.001516
0.00141227
0.00111511
0.00155232
0.00129845
0.00149628
0.00112491
0.00119615
0.00112012
0.00157674
0.00122456
0.00165178
0.00144356
0.00156216
0.00146546
0.00131571
0.00127076
0.00134633
0.000970193
0.00141108
0.00118739
0.00157822
0.0013345
0.00162345
0.00143422
0.00128241
0.00130981
0.00129502
0.00157104
0.00145734
0.00145418
0.00159206
0.00133576
0.00161125
0.00121075
0.00116018
0.00132903
0.00133709
0.00140839
0.00136222
0.00128539
0.00154329
0.000988052
0.00162548
0.00140364
0.00144193
0.00135863
0.00118657
0.00163484
0.00114917
0.00118217
0.00145221
0.00140877
0.00134681
0.00137426
0.00175268
0.00141817
0.00139286
0.00139034
0.00164274
0.00158953
0.00153799
0.0014556
0.00149573
0.00158644
0.00169321
0.00154944
0.00137999
0.00143478
0.00106075
0.00169375
0.00149127
0.00140528
0.0010413
0.00129826
0.00125312
0.0015849
0.0016071
0.0013743
0.00123272
0.00144888
0.00134226
0.00133343
0.00121518
0.0013255
0.00192467
0.00182401
0.00151028
0.00141072
0.00138249
0.00159212
0.00131391
0.00129446
0.00138471
0.00148086
0.00116009
0.00161381
0.00170383
0.00181322
0.00129544
0.00132882
0.00140417
0.0013046
0.00167798
0.0014202
0.00164106
0.0016248
0.0012074
0.00153525
0.00133623
0.00142495