/*--------------------------------*- C++ -*----------------------------------*\
| =========                 |                                                 |
| \\      /  F ield         | OpenFOAM: The Open Source CFD Toolbox           |
|  \\    /   O peration     | Version:  2.4.0-MNF                             |
|   \\  /    A nd           | Web:      www.OpenFOAM.org                      |
|    \\/     M anipulation  |                                                 |
\*---------------------------------------------------------------------------*/
FoamFile
{
    version     2.0;
    format      ascii;
    class       volScalarField;
    location    "5e-05";
    object      meanCollisionRate_Ar;
}
// * * * * * * * * * * * * * * * * * * * * * * * * * * * * * * * * * * * * * //

dimensions      [0 0 -1 0 0 0 0];

internalField   nonuniform List<scalar> 
77760
(
30431.8
31228.1
32065.6
32317.9
31949.3
32087.3
32298.7
30989.6
34398.1
45438
30015.4
29341.8
29725.4
27928.7
28094.6
29116.2
29881.2
31342.1
33650.8
39309.4
30531.8
31571.7
31094.8
31416.7
31658.5
31358.6
32366.3
31229.6
35153.9
34575.7
29502.9
28737.1
29095.4
28195.5
27633.1
29401.4
29790.8
32790.7
34065.1
34330.8
30229.8
29517.5
28487.1
30118.7
30809.7
29927.9
30446.9
31721.9
33910.7
35784.3
29697.4
29177.7
29239.7
27978.6
28228.3
29290.5
30308.9
32364.4
33166.2
32808.6
29705.8
30678
30497.4
29890
30390.1
31747
30618.1
31762.6
31232
31693.9
29943.9
29277.4
29069.7
29144.3
28192.8
28406.8
28843.4
28704.6
29220.6
37614
29885.2
30547.6
31388.8
30492.8
29742.5
28600.9
28540.9
29818.5
30178
37699.1
29863.4
29724.2
28951.5
29206.7
29149.5
29731.4
28522.6
28784.2
30853.6
33724.8
30054.7
29451.6
29845.3
29385.5
28835.4
29392
30301.5
31604.7
32785.4
36790.3
29569.2
29993.4
29797.9
30706.7
32446.9
30779.5
30843.1
30795.6
30437.3
34399.6
30913.2
30772.8
29577.6
29981.4
29475.6
30209.1
29698
30012.5
31479.2
33872.7
29506.9
29979
30855.2
31338.7
31071
30912.6
30312.3
30811.4
33278.1
42289.1
29707.9
30744.9
30096.3
29112.4
28624.5
27638.4
29441.2
29598
29671.6
34096.5
30128.2
29649.3
29811.2
30341.2
30057.6
31548.1
29845.2
28087.7
32286.7
38150.5
29822.9
29396.8
30118.5
29221.1
30381.8
29166.6
29358.7
30010.9
32435.3
38346.4
29800
29281.9
27902.4
28857.5
28140.5
28383.3
27681
27671.4
30233.3
33722.4
29897.1
30949
32290.5
32476.9
32322.3
30707.6
30940.6
33366.1
31479.5
36073.4
29449
28878.9
29617.2
30508.1
31157.1
31470.7
31118.4
31448.1
33979.4
37586.3
29949.3
28806.8
27833
26557.4
26989.7
27104
27469.6
29430.4
30508.4
33386.3
30118.3
30003
30662
30681
30855.3
31066.9
32053.8
30276.1
30834.4
35160.3
29330.7
28259.4
28723.5
29560.9
28926.8
30055.7
32275.3
32544.3
35889.3
39384
30747.2
31710.4
30911
30294.6
30813.7
31305.9
31353.5
31261.5
30766.8
35307.1
30679.9
31070.9
30492.9
30835.4
30360.8
29179.5
30228.5
28545.6
29716.1
36436.3
29853.8
29453.2
29646
29642.1
28541.5
28626.2
29226.1
28899.8
29084.8
36673
30531.8
29970.1
29402.5
30580.1
30382
31700.4
32710.4
32020.9
33383
34143.8
29625.7
28317.2
28529
27985.4
28628.4
29290.3
30340.4
31287.3
32023
34178.1
29681.9
30465.5
30990.5
30839.9
29646.2
30751.9
30485.2
29330.8
30610.3
36337.9
30747.3
30944.1
31184.8
31501.5
31213.3
30349.7
29463.8
31247.3
32252.6
37485.2
29991
30114.9
30726.7
30543.2
30277.2
30503.9
30593
30752.4
32792.5
36091
29137
29220.5
28165.7
28282.5
27918.3
27442.8
27826.6
29584.2
29084.8
32031.9
29878.9
29603.3
29766.9
29837.2
30056.5
30490.2
30436.4
30481.1
31071.5
33643.2
29398.4
30443.2
29678.5
28589.3
29579.8
29123.5
28649.8
29330
33318.8
37040.2
29765.2
30171.2
30905.6
30748.6
30677.8
31458.3
31189.9
32840.9
31380.8
34689.2
29665.6
30138
29788.9
29242
28853.9
28664.1
29001.8
30851.7
32456.2
32446.9
30290.8
30164.9
30546.6
30626.9
30611.8
30974.6
30583.1
32652
37235.8
42738
29269.7
28914.8
28775.9
29317.4
29400.4
28044.3
29647
30999.2
30514.5
38157.4
30344.2
30275
30068.5
29487.4
29408.8
30600.8
30196.5
30452.9
30281.4
34195.4
29349.3
29269.5
30183.5
31864.6
31636.4
30146.5
28729
30700.8
32985
33546.7
30575.4
29981.6
31411.7
30833.2
30155.8
30185.2
31230.7
35254.5
34905.4
39484.6
29568.6
32207.1
31007.7
30562.7
29474.8
28776.6
29128.4
29190.2
31954.6
33108.1
29923.3
30002.7
31726.6
30744
32536.6
32803.7
31190
31637.3
30846.4
35658.9
29236.3
29135
29568.8
32139.3
31967.3
31430.7
29564.1
30733.8
31661.2
32824.2
30310.5
31635.9
31834.8
29923.8
30463.1
31394.3
31582
34871.7
36078.1
37763.4
29626.4
29319.7
28552.4
29319.1
30813.2
31815.7
32499.5
30860.8
33229.3
35041.5
30331
29951.4
29805.1
29457.5
29026
28481.4
29728
31951.3
31284.9
36023.4
29585.4
28789.8
30242.8
29695.6
29173.5
30470.2
31541.6
30619.1
32811.9
33395.1
28797
29520.5
29542.3
29143.2
28884.9
30438.9
31520.1
30881.8
33475.3
35866.8
30276.9
30667.3
31685.8
32339.8
31952.8
31567.3
32903.9
33471.1
34110.2
39623.8
29929.7
28881.2
28691.7
28827.7
29749.8
31460.4
31109.2
32465.2
32483.4
36918.4
30587.1
29604.7
29514.1
30579.8
30655.9
30596.7
31850.7
33663.7
33504.1
36017.6
31407.3
31876.5
31041
31594.6
30175.7
29590.2
28869.1
28396
31202.6
35323.3
30052.6
30126.7
30970
29113.4
29232
28781
30706
32646.1
34816.1
34296
29999.9
28858.3
29288.9
29358.3
30308.6
30353.9
29700.7
29409.4
29094.5
31727.4
30786.1
30572.4
29720.8
28947.9
29120.1
27382.1
30718.9
29772.9
32486.8
35748.6
29953.1
29818.3
28893.2
30119.8
29853.8
29566.2
29311.4
31089
32001.7
37141.7
29563.6
31401
32066.2
30667.9
30273.6
31047.2
31938.7
33683
33215.5
33825.1
29741.6
30737.6
32284.5
31726.9
31958.1
31981.8
32266.1
31715.6
34587.2
39348.4
30075.3
29782.6
30513.7
30558.4
30549.7
31472.3
31070.6
33098.6
34256.6
33617.2
29525.4
29019.6
29318.5
29473
29727.6
28808.8
30562.5
34241.1
33543.4
36267
29826.8
30190.9
28535
29043.2
29516
29282.5
28078.4
30278.3
30035.8
33870.8
29865.4
30967.7
32500.1
31365.4
29630.8
29713.7
28770
28174.6
30751.6
36022.8
29030.4
30260.2
29000
29867.9
30459.9
30170.6
29677.7
29150
30589.7
34579
28896.3
29196.8
29158.7
29692.6
31339.4
31756
32908.8
34330.8
37175.7
39562
29952.7
29958.9
29039.6
28937.1
29849.4
29118.9
29066.8
29024.3
31026.6
35190.7
29755.2
29175.5
29329.5
29213.6
29577.6
30749.9
30442.3
30744.6
32596.8
37243.1
29337.9
29027.7
29935
28644.2
28765
28585
29104.5
29908.1
31490.4
33166.1
30672.4
29189.1
28759.2
29501.1
29783.5
30266.5
30472.1
32328.8
34291.1
35236.7
30651.6
30962
30434.5
29682
28730.6
28427
29601.2
29348.9
29869.2
33976
28732.9
28767.6
28875.5
29553.4
30526.1
30225.9
31154
31013.3
32382.6
34364.4
30301
30027.5
31229.7
30254.8
30699.1
31287
30608.6
29922
28375.7
32126.8
30092.9
30369.1
29962.8
29682.4
30161.8
31610.3
31891.7
32417.9
34508.8
41036.9
30697.5
30513.2
28988.2
28923.4
30163.2
29856.7
28981.1
31273.9
34679.4
39907.1
30175.7
30229.4
30356.2
29773.9
29829.8
29641.8
28733.2
29719.8
32794.8
35909.9
28998
30440.8
31335.6
30850
31205.2
31479.7
31441.1
30275.8
30190.5
32790.6
29962.9
30401.2
29521.7
30038
31298
33469.7
32885.6
32190.6
31302
31937
29195.3
28159.6
28718.3
30031
31104.4
29317.4
30583.2
32773.4
32491.8
33418.2
29778.6
30115
29589
29184.7
29095.9
29339.3
30929.9
32882.8
32151.2
34783.2
30162.1
29079.4
28137.9
27812.1
28117
28565.9
29856.4
30247.2
32123.3
34086.8
30308.5
31041.6
30315.3
29398.5
29334
29457.6
30775.1
31577.3
34960.7
33168.1
30227.5
30584.2
31480
32208.4
30329.4
31703.9
33824.7
33694.4
34841.8
35286.1
30390.4
31127.5
30304.4
28890.6
30477.9
30128.9
30159
29414.9
30156.6
32185.3
29191.8
29231.7
29879.7
29748.6
29420.1
28244
29381.8
29954.2
30309.1
30365.7
30627
30754.8
31231
31700.9
30606.5
30687
31567.3
33074.6
33525.8
35011.3
27785.6
27348.1
28651.1
28842.6
30998.8
30714.4
30015.7
29621.8
32693
34851.8
29614.6
29300.4
28679.7
29606.9
29548.7
29479.9
29323.3
29732.8
32613.3
34514.7
29758.4
29718
29574.8
29375.6
29218.7
29914
30658.6
32599.8
32794.3
34448.5
29657.5
29893.7
31357.4
31471
29766.8
29990.8
30023.5
29991.3
31668.3
32806.1
30394.4
30440
28644.5
29033.8
30588.3
30555.9
30212.6
32339.5
33589.8
32205.4
30765.9
30604.3
29545.9
30914.4
31079.8
31533.4
31317.2
30862.7
31228
30296
29837.6
30764
30971.8
30028
29420
30519.3
31302.3
31389.9
32883.1
30931.1
30809.9
30798.4
30843.7
30411.6
29195.7
30116.8
30472.4
28962.4
29933.4
34013.3
29194.9
29331.6
29598.2
30404
31013.5
30721.7
31615.5
32032.3
32637.6
36485.5
28824
28636.6
28357
28804
29846.8
29540.3
31208.3
33074.4
34340.6
35404.7
30233
30452.5
29212.3
27747.2
28393.4
29622
30306.3
30373.4
30608.9
31175.6
30579.5
31085.6
30781.9
30877.3
29439.5
28307.1
30043.6
30382.9
31822
33521.2
29882.3
29404.8
29064.8
29502
31310.5
30855
31098.6
30428.7
33208.4
34582.8
29649.6
28827
27123.9
27676
27058.1
27069.2
28733.1
29009.1
31908.2
29621.2
30188.1
29362.6
30645.7
30440.2
30007.9
29952.6
29519
28542.4
31786
32701.5
29654.7
30097.1
29145
29370.8
29280.7
29733.5
29385.5
31120.2
33400
34317.5
30044.1
29697.5
29943.4
30147.1
28761.6
28666.3
29663.5
29815.9
31207
33253.2
31238.5
31663
30255.6
29037.3
28878.9
29352.7
30450.3
29511.5
30451.4
32021.3
29192.1
29527.3
29074.2
30361
30339.9
28682.5
28441.6
30551.9
31194.6
31784.7
31107.1
32065.2
31117.6
30898.6
29507.5
29564.1
27578.6
28398.2
29057.9
29633.7
29086.4
28248.4
29179.6
29342.6
30291
30970.3
30346.7
29510.9
30512.9
29988.1
29521.2
28705.9
28280.1
29580.9
29772.4
29830.6
29818.5
30706.7
30104.5
30228.9
30385.9
30635.9
28880
29579.2
28735.5
28274.9
29552.9
30179.7
30500.3
31465.3
29744.4
30341.7
30578.9
29691.2
29631.3
28907.1
30854.6
34170
33912.4
38528.5
29456.9
28186.7
28590.2
28805
28647.5
29549.4
31025
32612
33049.4
35215.4
29463.1
28700.4
29109.2
29738.1
30594.8
30581.8
28653.7
31597.8
32800.9
32305.5
30956.1
31555.5
31804.3
30681.9
29231.3
29854.2
31339.2
34703.6
32639
35977.3
29593.3
29226.6
31052.3
30943.7
30945.1
29933.8
28978.6
31058.6
32622.1
35747.1
29334.8
27956.3
29239.7
29633.8
29233.2
29859.4
31658.8
30178.8
30224.3
30662
30808.5
31304.7
30559.7
31740.7
31434.8
30371.9
31911
31677.9
31117.9
31684.6
30395.4
30244.6
29639.6
30792.3
31175.6
31621.5
31748.6
30122.3
32218.9
31890.4
29915.6
30060.2
30541.2
31345.6
32198.4
30929.3
29530.7
30181.9
32900.9
32169.1
28591.2
28587.8
29797.7
30970.7
32884.6
32285
32250.4
33142.4
31149.6
33068
28364.3
26706.1
28724.4
29563.7
29829.3
30158.1
31968.2
32175.6
30637
32371.3
30746
30854
29815.4
29427.7
29428
30582.1
28784.6
29824.9
27399.9
28438.6
30865.2
29973.6
30505.9
30723.7
30507.8
29123.8
29674.8
29640.8
32228.6
31511.8
30154.9
30437.1
30662.3
30706.8
32245.9
30992.7
30770.9
31808.6
32171.5
33357.7
31093.6
31921.2
32264.5
29856.4
28591.2
27765.3
26779.3
28839.3
26779.1
26714.4
30272.1
31197.8
31765
30420.2
30408.4
30925.9
29970.9
31489.4
32546
30188
30967.8
29966.5
28969.4
30334.9
31994.2
30768.3
30711.7
30871.2
33099.5
35983.5
30402.4
28816.9
30236.1
30138.8
29743.5
30827.6
32045.9
31861.2
31002
31958.5
30169
31292.3
31427.6
31976.8
33134.9
33266.2
34384.9
33928.6
33675.2
31399.5
29212.1
29139.7
28953.7
28677.1
28913.1
29645.5
29942.2
31468.4
35475.9
31869.1
31047.7
30631.4
29257.1
28850.8
30274.2
28916.5
31148.2
28952.6
29433.2
30427.7
28889
28945.6
29786.3
30071.4
30425.5
31420.8
31551.8
30934.6
29728.1
33222.7
29472.3
29614.6
29216.9
28789.7
27891
29253.9
29048.5
30087
31077.5
37545.1
30393.4
28890.1
29436.1
31325.4
32396.9
31033.8
31341.6
32916.9
33316.6
31484.2
30285.9
29866.7
30811.6
30634.2
30727.8
31020.8
30996.5
30228.8
32293.2
33773.8
28863.6
30061.2
29870.2
30116.4
30269.9
30075.5
30265.4
34165
34019.4
35266.1
29888.5
29171.5
28706.8
29573.4
31159
31805.9
30769.3
31765.1
30159.9
34833.3
30048.6
29808.5
30561.2
30639.5
29127.3
28487.5
28562.2
32531.7
31650.3
29808.4
30032.6
30295.5
31348.6
31051.5
30985.4
29353.9
30745.7
29028.9
30992.3
32011.9
30422.1
29833.7
29342.3
28253.7
27851.5
27604.5
27584.5
30490.4
29755.9
29658.9
29480.2
29047.9
28934.5
30421.6
29621
30980.4
31750.7
31891.4
31081.9
30512.3
29354.8
27989.2
28856.3
29867.6
30347.9
31489.5
30847.7
29782.1
31153.3
31116.3
28966
28293
29510.4
30936.5
29227.3
28072.4
29179.8
31517.1
30755
30927.4
31209.6
31955.3
29733.9
28416.4
28126.7
27705.8
27266.6
29395.6
32093.3
31898.6
31068.2
30584.5
32041.8
32463.6
30186.6
30847.2
30658.4
30580.5
31651
31206
29785.7
30185.7
30482.4
29979.4
32526.8
33110.5
32962.9
30619.5
30492.7
30837.5
29903.8
29120.3
29528.8
29895.3
31156.6
30311.5
33653
31887.9
32856.5
34746.6
28969.7
30332.8
30361.7
30174.9
29977.2
31297.4
31358.7
30361.2
30321.6
31701.4
29837.4
28219.4
28809
30870.5
30169.5
29885
30158.3
31174.5
30917
33211.3
29389.5
30208.5
29899.9
29567.2
28351.7
27591
28332.7
29661.3
32380.8
34306.3
29715.6
31685.5
29973.1
28674.1
28620.2
31710.9
30375.1
29006.1
31701.8
32748.3
30403.7
30628.9
29950.5
29370.2
28868
31442.3
29650
31498.6
28752.9
28933.6
29175.2
28573.9
29077.9
29458.3
29783.2
30309
29793
28697.4
27525
28500.1
29613.7
29278.8
29160.5
29294.3
29385.4
28912.1
28496.7
28174.6
30036.4
29130.4
30412.6
31238
30631.4
30930.2
31288.2
30237.9
31115.1
30733.7
29670.4
31535.4
31217.4
32090.7
30324.1
31092.1
29776.3
30885.2
29081
29369.9
29226.7
29769.3
29548.6
29343.5
29373.6
28375.4
28225.8
28482.7
28868.9
28856.5
28432.4
30995.9
29098.3
31060.7
32223.7
31465.9
30662
29341.6
30190.4
32269.7
31267.8
32116.2
30034
30778.4
29109.5
27960.4
29257.2
30201.2
31748.9
31574.6
31699.7
30815.7
29245.3
29396.9
30619.4
31099.3
30988.5
33076.6
32016.3
32469.5
29346.3
31030.6
30274.4
29601.2
28441.2
28078.6
27447.1
27735.9
28993.5
27764.8
28209.3
29470.6
29033.5
28591.2
28049.4
28724.2
30656.2
31299.3
31071.4
30986.8
32017.1
31894.5
30391.5
29446.4
28480
28249.6
29027.2
31580.5
28961.5
30872.4
30909.6
31196.1
29708.3
28916.9
29552.7
30777.9
30710.5
29409.3
28683.6
30527.4
31368.8
29883.7
29665
30611.4
29869
29903.3
28415.7
28122.2
30628.5
31239.3
30449.3
29475.7
30981
30945.5
31994.7
31846.5
31734
32780.6
30284.2
29473.3
31060.3
30552.9
29372.9
28627.9
29389.2
29548.9
30699.5
30884.1
30929.7
30720.4
30987.1
31198.6
30032.1
29244.7
28493.7
28294.2
29712.1
29785
29484.6
30157.2
32731
32757.5
29760.7
28680.1
28176.6
27492.7
27348.6
26820.2
28130.1
28442.5
29538.1
29772.2
29442.7
30816.1
31956.3
31768.4
29919.2
29642.1
29069.4
32437.5
33185.8
32679.8
29004.7
29669.4
29193.6
29180.6
29197.3
29731.3
30126.5
29611.7
30840.5
30969.3
30547.5
29250
28867.7
29772.1
29714.3
29460.1
29723.3
31542.3
30037
30915.2
28562.9
29061.4
29457.7
28848.4
28287.9
27811.5
28467.4
29629.7
29058.1
30890.3
30745
30224.8
28855.7
28618.7
27772.3
28396.4
28768.9
28086.7
27726.1
28051.4
29620.7
29398.6
29177
28796.4
28865.6
28421.3
28863.3
30123.5
28475.5
30955.7
29551.3
29575.3
29941.3
30638.2
30903.2
29589.1
29387.2
27582.4
28656.1
29134.9
29749.1
29758.4
28944.1
28302.7
29126.9
30470.2
32023.3
32288.1
31835
32447.8
30716.8
30967.6
30964.7
29876.9
30498.4
29723.7
29742.7
31723.8
31507.8
31078.9
30275.2
30536
29120.4
29169.7
28939.7
30087.2
31351.8
31135
32388.3
30849.8
29382.9
27513
28032.5
29384.2
30615.2
30390
30807.7
31758.5
31096
31774
29745
29511.4
29537.7
29792.8
30340.1
31736.8
32613.8
32114.1
31187
32558.1
30528.7
31109.6
30643.5
29869.5
29479.4
29485.6
29073.7
30738.1
31728.2
31700.4
29829.9
30791.2
31784.2
33323.2
33086.5
32679.3
31509.6
32351.6
35051.5
38343.5
30779.8
29962.6
28571.7
28718.5
28848.1
28435.8
30163.7
31063
31916
34217.3
31268.6
31467.7
31281.7
31110.4
31019.7
30458.3
32442.8
29873.7
33205.9
32559.5
30089.7
31226.6
29461.9
28715
27630.2
27638.4
29431.8
31004.2
32512.3
30814.1
29456.6
29161.4
30277.3
30901.8
31436.5
31107.3
30682.5
31165.4
30183.7
31695.2
30510.1
30607
29936.4
30434.2
30176.2
29879.3
31572.1
31412.7
30656.2
31615.1
29463.3
29683.2
30398.2
29936.7
29510.6
29743.6
29838
30707.3
30450.4
30514.7
30102.8
29849.6
29283.4
29995.8
30354.9
30940.4
31568.6
30748.4
32489.6
29772.4
29674.5
28987.3
29160.7
28659.1
29533.9
29830.8
30736.6
32076.4
31483.7
33076.6
29916.1
30716.8
30894.5
30606.1
30258.3
31070.1
31026.4
31886.8
32818.4
32829.9
29596.9
29251.3
30278.8
30440.6
32151.3
31698
30083.4
29561.8
30345.7
31630.2
30945.2
30190.4
29387.8
29534.5
28618.8
29830.4
30845.8
30423.8
30671.2
32280.1
28536.9
28051.4
28690.1
30263.2
30056.4
27976.4
29746.1
30667.1
31175.7
30969
30588.9
31375
31093.5
31962
32309
30044.8
31396.8
29578.4
31206.6
31989.5
29377.7
28549.9
29713
29606
30668
30816.9
32038.5
32626.6
33004.8
34099.6
29820.7
31461.2
31240
30823.7
30354.1
29401
30047.7
30597.3
32155.4
33317.7
30786.3
31470.4
30374.8
30812.9
29936.3
29534.4
32144.5
31312.3
29927
31222.4
29104.9
29802.5
30019.4
29319.5
30071.6
30058.9
29592.6
28259.8
29557
32179.7
29857.4
29491.8
28509.5
27235.6
28862.8
30609.2
29978.7
30730.9
28926.8
29411.6
30282.6
29858.1
29891.2
29726.6
29917.5
29701.3
27957.8
29794.1
30637.6
31423.2
28777.3
30582.3
31504.8
32724.4
30460.1
31008.8
30803.5
29959.9
28606.7
31235.3
29887.4
29227.5
29110.9
29828.5
30084.7
30918.4
31052.2
33143.3
31960.9
33196.3
29773.5
29709.7
30509.6
29830.9
29380.2
28506.5
29583.4
30845.3
31094
31248.3
30295.1
32255
32758.3
31804.4
33360.1
34663.8
33707.6
32837
31830.6
33250.9
30231.9
29898.3
30582.4
30697.3
29005
28378.1
28491.6
28811.9
28081
29878
29883.1
29767.2
29128.9
29566.1
30090
31352.3
31038.7
31046.4
30322.3
32435.6
29628
29180.3
29084.5
29685.4
30134.3
29268
30836
33287.6
31915
30539.9
29889.2
29792
30177.6
28706.5
29304.2
30663.5
33871.2
32437
30303
31550.6
28765.9
29979.3
29395
29541.8
29715.3
29871.9
30061.5
29302.4
32453.8
32626.4
30599.2
30290.7
30351.8
30747.5
29565.9
29183.1
29779.1
29569.2
28948.4
28183.3
29679.6
29649.5
28966.6
29294.9
28392.6
28734.3
30067.4
30269.6
30496.8
32492
29032.4
29233.8
29449.4
29507.7
31256.2
31968
31643.8
31763.2
29674.4
30661.5
30732.2
31351.4
32040.8
31427.8
29902.2
30204.3
30250
34187.2
34202.7
33266.3
29347.9
29652.8
30351
30419.9
30056.3
29014.3
30290.1
29750.3
28657.4
29645.2
29081.8
31244.4
31942.8
30758.1
29920.7
29881.4
29620.5
30404.7
30660.8
29675.2
30156.7
29326.4
30542.4
30164.4
31269.9
30713.1
31691.7
32817.7
32726.6
33219.5
30631.2
31062.9
30721.5
30105.6
30100.5
31256.6
31922.1
32511.6
32983.6
40185.9
29203.1
29150.8
29301.9
28991.3
30451.5
31005.5
30969.8
30909.1
34614.8
39058
29273.7
28999.7
29035.1
29104.3
30422.8
28968.2
28063.7
30058.4
31024.5
31527.7
30027.4
29746.5
31171.4
32116.7
31663.1
31980
30032.2
31156.6
32020.5
33122.9
29618.4
30664.8
30327.2
29511.7
31571.6
33487.7
32885.9
32571.3
34492.6
32662.9
30603
31553.5
31627.7
31702
31204.7
31181.2
32303.5
33002.1
34479.7
32682.3
30627.4
30739
30391.9
30380.5
28304.3
28832.4
27373.5
27422.8
29581.1
29871.3
30065
31230.6
30821.3
30644.3
30254.6
28452
29009.7
30759.6
29900.1
30706.6
30000.1
28505.3
28759.9
28816.5
30606.7
31228.3
30911.7
32543.2
31451.8
29843.6
30662.4
30982.4
31375.9
31722.7
31380.1
31811.7
30142.4
29248.1
30469.6
29374.1
30151
31964.9
31434.3
31654.8
29428.5
29572.9
29712.7
27211.4
26666.9
26838.5
30302.4
29171.9
29746.9
30214.5
30999.8
30498.5
30335.4
31752.2
29573.3
30780
29372.1
29703.7
29441.9
29533.3
30248.7
31239.8
31175
30640.1
30495
29713.5
30615.2
30499
31429.8
29801.7
28849.7
29194.9
29646.3
28774.2
28137.6
28858.4
30022.2
29798.8
29954.2
30784.7
30355.1
32259.6
33312.1
32771.1
33160.1
31798.5
30144.7
31545.8
31884.6
32401.8
31431
32622.2
33669.6
33813.6
32937.3
32984
30985.6
30165.6
28732.9
29008.2
30116.8
30863
30259.6
29670.3
30564.3
31385.8
29269.3
29656.6
30148.5
30954.1
29333.8
29981.1
29773.6
31383.8
32870.3
30351.8
31076.8
31290.8
30860.3
30118.7
31690
29492.3
29609.1
29954.8
30218.6
31232.1
29696.4
29906.1
28681.9
29245.1
29148.5
29694.2
31408.5
31025.7
30031.7
31513.8
29415.2
29786.6
30326.7
29986.9
29881.7
30995.2
29074
28338.7
28520.2
27931
30062
28712.8
29077.2
30675.4
30072.7
30725.2
29811.7
30030.8
29167.9
29574.4
30325.6
30451.7
29839.5
29243.7
28594.1
28034.1
27301.2
27303.2
26267
27292.7
29129.8
28639.7
28206.6
30184
30771.9
30460.2
32998.7
32482.8
32494
32677.8
29976.1
31104.8
30939
30502.3
29999.6
31422.4
31618.8
31990.6
31286.7
30317.5
30477.1
29726.3
31184.6
31068.4
31233.7
29822.7
31121.7
30803.4
31953.6
31818.4
30031.3
31392.6
31588.1
30748.3
30723.2
30277.7
30015.7
31822.4
32984
33927.7
31218.1
30444.8
29598.1
30253.6
30114.3
30297.5
30182.2
31469.6
30884.2
31870
29101.3
28569
29381.9
29341.8
29164.3
28413.3
28919.6
27508
28396.2
27207.1
31015.1
30369.5
30321.6
30753.5
30605.1
30735.1
30354.2
31123.4
31636.1
32231.1
30120
30421
30354.1
29756.3
30353.9
30413.4
29457.7
29395.8
27912.6
29980.6
30766.7
29422.7
29738
29416.7
28564.9
27402.7
28627
28649.8
29344
29554
29243.9
30114.6
29387.4
28956.1
31456.9
31449.3
32321.8
32893.5
34084.1
32829.3
30251.4
28995.7
28145.3
28833
28546.7
31300.7
30134.5
30187.5
30136.9
31292.9
29070.1
29739.4
29475.2
29776.2
31159.3
30916.1
31062.9
30226.1
30341
29956.2
28890.6
29215.6
30043.5
29990.1
30092.3
29331.6
29402.3
29746.6
29841.3
30298.8
29766.8
29918.2
30110.4
30145.4
29487.4
30217.1
29289
28974.3
29612
35039.2
30155
30267
30150.6
31749.9
32427.9
33167.1
32839.1
31293.2
33633.7
36255.1
29978.5
30760.6
30338.7
30319.4
27494
27962.9
28820.4
29107.6
32021.8
32224.9
29887.3
29067.6
28837
28779.9
28516.7
28286.8
27726.3
29279.7
32459.4
32544.7
29565.1
28978.9
29169.6
29242.4
29328.5
30737.2
31994.5
34054
34853.6
34092.6
29773.3
30419.4
31077.6
30350.2
29975.2
31353.8
30314.4
29496.1
29443.2
29098.9
30976.2
30239.3
31025.2
30249.9
31746.6
30799.3
32002
32636.6
31031.1
30805.8
28962.6
28309.1
28853.5
29066
27925.6
28444.4
28168.8
28590.8
28692.2
29666.1
30370.1
29607
29569.1
29886.6
29131.3
28495
27938.6
27420.7
27996.6
28876.6
29841
29589.5
28986
28853.2
28350.4
28130.7
28198.5
28318.1
27626.6
29684.6
30032.4
30167.6
30776.4
30173.2
31171.1
32189.7
29262.1
29472.8
28490.2
28477.8
29079
29668.5
29137.8
30557.1
29597.9
28854
30944.6
30108.8
30494.8
31903.4
30561
31746.3
30736.3
29050.3
29625.1
29790.1
30130.2
29882.6
29677.3
30325.5
30099.6
29662.7
29346.9
29587.6
30042.9
28203.8
28386
28597.3
30521.7
32052.4
29374.3
29150.9
29562.5
30038.9
30666.6
32326.2
32556
33457.2
31975.2
30782.9
30743.8
31112.4
31051.8
30484.6
30269.6
29902.6
28374.2
27726.7
29494.8
30641
28950
27869.2
28444.8
29897
30389.5
30558.9
29584.9
29713.4
29206.8
28362.4
30108.9
30699.6
31495.5
29792.1
29679.9
30111.6
30618.8
30192.4
29193.1
30433.8
29886.1
29497.2
29569.6
29589.2
30065.8
30262.7
28886.3
30015.8
30731.4
29598.3
29957.8
30432.8
31801.6
30772.2
28859.7
29318
29852.4
29610.8
28762.6
27853.8
30654.2
29838.1
28745
28422.9
28435.2
28823.2
28905.2
28461.6
27895.5
29628.4
29139.3
27417.6
28205.6
29080.8
29118.1
28232.5
28382.3
28812.7
29889.2
30831.3
30315.1
32357.7
31336
30962.5
31421.7
30930.6
29569.8
28589.1
28444.8
29773.1
30586.4
30820.3
31460.7
30124
28484.1
29689.4
31317.8
31934
32034.2
31420.9
29783.5
28833.1
29882
30627.8
30689.7
30500.2
29089.5
28650.8
29273.9
29827.4
29996.8
31611.7
30885.9
29191.5
29710.8
31506.6
31095.7
30315.5
31804.5
30576.5
29843.4
29139.3
29796.4
31038.4
31498.6
30720.8
30159.9
30166.4
29351.9
30161.3
29845
30842.8
31749.9
30385.2
29929.3
31446.2
30643
30510.7
31098.1
30938.3
29436.9
29279.2
28780.9
30186.2
31580.9
31269.7
29717
30298.7
30079.1
29732.7
29510.7
30380.6
32047.9
32056.8
31836.8
30289.1
31608.6
31170.5
32218.9
32333.6
30972.4
30902
30935.3
30352.7
28901.3
28648.1
29365.8
28370.5
27935.2
28090.8
29372.9
28714.4
28137.9
28713.7
28875.5
27833.8
28007.7
28533.4
29239.5
29806.6
29599.3
30684.5
31060.8
31958.7
31045.2
30762
30020.5
28745.4
30348.4
29887.9
29869.5
31551.3
31110.3
30525.3
31604.3
32109.4
30949.3
31185.5
32166.3
31173.1
30399
29041.9
30089.8
29785.5
29989
28541.1
27871.6
28440.9
27398.4
27533.6
30744
31029.3
29932.1
30675.2
30507.4
30604
29714.1
29288
28610.6
28367.6
30023.4
30530.1
30531.2
29531
29207
29299.7
30170.7
30046.8
31316.6
37415.5
28711.3
28391.3
28434.6
29605.9
31406
30728.6
32373
32322.4
35976.5
34959.3
30632.4
31027.8
29730
29345.9
29455.4
28876.9
28840.3
28697.7
26780.2
29354.2
29687.7
28938.7
29017
29022.9
29076.5
29404.9
29607.2
26920.9
27389.2
32260.9
30106.1
30719.3
31244.4
29904.1
29273.9
28978.6
30527.5
27883.7
27252.7
28167.6
29942.4
28728
28919.3
30236
31286.8
31397.2
30365.9
31930.7
30608.2
31720.9
29476.6
28736.6
29060.5
29235.9
27852.9
28281.2
30323.8
30128.2
31672.9
31862.8
29925
30183.2
30537.5
29504.5
30485.5
30641.4
30091.3
28452.8
28967.9
29192.5
29190.9
29784.8
29472.6
29887.2
30955.3
30099.1
30688
28819.4
28435.8
28880
29547
29268.2
30755.4
30144.8
30819.8
30457.8
29618.3
29687.4
30235.3
29378.6
29394.2
28737.3
27300.5
27602.8
27981.7
28889.9
30696.8
31203.8
29271.5
29563.7
28095.5
27334.5
28100.1
28045.8
28157.4
29183.4
29683.3
29785.1
31838.2
33019.2
31065
30504.9
30194.7
30568.4
29617.1
28855.9
29335.8
30349.1
30357.4
30646.6
29673.2
31255.3
30071.5
29881
29523.3
30465.2
29628.7
29560.8
30543
29079.9
30196.2
31424.7
32156.4
31505.5
30988.2
32099.7
30802.6
29116.4
30651.4
30455.9
29186.1
27901.8
28905.5
29253.3
28999.1
28806.4
29778.2
29482.5
29715
30883.3
30538.2
31311.1
30311.5
30461.6
30647.9
29618.4
28687.9
28841
29542.2
29298.5
30304.5
30799.3
30450.2
29425
28988.4
29388.8
29051.4
28727.9
29471.4
29094.3
29667
30969.9
30032
29697.5
29738.2
28583.4
27607.1
29506.5
29742
31331.5
30146.3
30071.6
30197.2
30332.4
31638
32004.8
32147.5
31754.7
32017.8
32304.7
30074.5
30559.6
29774.8
29855.7
28753.9
29239.3
29538.1
30525.4
30093.3
28092.8
30578.1
30130.1
29099.7
28516.7
28058
27750.9
27913.1
28268.4
28541.5
30056.9
28691.7
29071.6
30934.4
30358.7
30526.6
30483.5
30384.3
28938.8
28086.8
26743.7
30038.8
31202.7
31138.3
31910.9
31720.9
32221.4
31966.3
32124.1
31498.4
32355.3
30036.1
29190.2
26893
26193.5
27190.8
28377
27812
28382.7
28239
27402.4
30023.7
29245.3
30344.4
30351.9
28568.8
28591.8
27808.3
27209.1
27748.5
27874.9
29352.9
29250.3
27618.3
28843.1
28247.8
28507
29494.8
29812.9
30785.9
29800.5
29121.1
28656
28372.5
28262
28830.3
28885.1
28326.8
28405.9
28152.3
28762.1
29524.5
30621.4
30328.9
29378.9
30999.9
30441.6
31579.8
31883.8
30839
31624.6
29329.8
29263.3
28797.5
28907.1
28905.7
29521.9
29273.5
28533.5
29496
30420.2
29197.8
29530
28841.9
28200.2
27632.1
28016.6
28693.4
30759.6
30673.8
30714.3
30846.5
32907
32243.4
32614.1
30411.5
31123.5
30867.6
30735.7
30304.7
31097.6
30566.1
29848
29086.5
29353.8
29944.8
29979.2
29188.4
29033.3
28379.3
28933.3
30984.1
30944.8
30853.7
30110
31668.9
31285.7
31880.2
32695
33239.2
32304.6
29991.3
30445.7
31115.3
31215.5
31444.9
31461.6
31087.1
30138.1
30868.6
30489.7
30063
29763.3
29733.5
30215.7
28451.5
28087.9
29382.2
29887.8
29270.6
28458.2
30330.9
30847.8
30942.5
31432.8
32157.6
32178.9
32025.9
31936
32719.3
36032.6
30603.7
29918.6
29555.5
29054.6
28013.4
29035.5
31651.4
32269.1
35422.8
36265.5
30526
29535.5
28814.9
30031.4
28692.8
30285.6
28318.5
28598.8
29766.5
33187.7
29785.1
31800.9
32847.1
31504
30858.5
31409.1
31052.7
33196.4
33308.4
34707
30423.2
30572.4
30582.9
32354.4
31619.4
30832.7
31433.1
32918.5
35854.3
36917.8
30971.2
31967.4
30410.5
29861.4
29733.3
30381.4
30621.5
31200.8
30460.4
34873.7
30166.3
30353.8
29657.5
29265
29857.2
30473.4
30674.9
30639.1
30479.3
32006.1
29565
28754.7
27725.4
27977.7
28595.4
27852.6
29495.8
29504.5
28434.5
29331.7
29903.9
31045
31181.1
29663.6
28386.6
28991.9
29048.8
29812.4
30443.3
30466.9
30414.8
28609
28433.1
31356.6
32682.2
31069.8
30776.8
30998.4
29185.4
30130.6
30872.9
31891.2
30871.2
31646.1
32464.9
31550.9
29386.7
28974.2
29945.2
30836
29486.6
29822.6
31464.3
31628.8
30640.6
30780.1
31686.3
31243.4
29141.8
28216.3
29210.2
29415
28534.6
28164.7
28994.4
28861.4
29067.9
30141.5
29664.6
30292.7
29506.4
28508
29920.9
31853.9
31291.3
29651.4
29198.7
31713.8
32997.1
31952.1
29125.6
29337.6
30507.9
29768.6
31203.4
32083.7
32341.9
31603.5
31805
30756.9
31333
31960.2
30885.2
30168.7
31406.2
33084.2
31903.7
31236.7
31880.2
31560.6
29302.2
29596
29484.9
32091.7
31351
30709.5
32385.6
34027.2
31808
32529.8
29807.3
28483
27816.9
28696.1
29545.5
30095.2
29554.2
29671.3
29856.1
29990.2
29906.7
30384
30099.5
30916.7
29776.9
31957.9
30988.7
29812.9
29162.3
29240.2
29079.6
28765.2
31965.4
32588.9
32421
31309.8
31214.2
32461.5
31786.5
30550
29818.7
30790.9
29248.8
30226.3
30604.9
30415.3
30190.5
29271.1
29946.7
31121.7
28578.1
27741.6
27815.3
28016.7
27883.3
29175.8
30323.7
31119.6
30446.7
29775.5
28955.5
28816.7
27809
27475.2
27611
26660.2
26667
28290.6
29790.9
28115.9
30780.4
30545.1
30521.8
29823.1
29287.3
30256.5
30066.3
30909.5
29494.4
30111.3
28796.6
28956.2
29452.6
30951.7
31983.7
32226.6
32462.4
31701.3
30816.1
31081.7
30412.4
30860.4
30698.4
30665.4
32121.5
31827.3
30542.4
29179.5
30885.3
29121.4
29950
29801
29951.7
29860.3
30288.9
30316.7
29572
32256.7
31043.5
31798.5
29207.6
29340.9
29448.1
30665.9
30227.9
29758.8
29227.5
28807.4
28485.8
27978.3
30556.5
29486.2
30574
31124.9
30497.7
30606.6
31040.7
31366.8
30585.7
30805.4
29744.5
30739.3
30104.6
30074.1
29874.2
29917.9
30058
29875.3
29496.6
30247.3
30728.2
30218.1
30494.7
31278.2
31774
31333.8
31799.5
30557.1
29197.4
28773.8
30107.2
28563.4
28284.2
26789.6
27248.8
28245.1
29477.2
29921.8
29662.3
28937.6
29853.6
30411.6
30364.5
30505.4
30990.8
30806.1
30375.7
30376.4
29908.7
29610.5
29258
28893.5
29222.2
28819
28951.5
28858.5
29253.3
29021.6
29650.1
28935.2
31390.7
30937.2
30929.3
31019.4
30567.1
30977.3
30087.9
30287.2
30556.1
29943.9
30330.7
31453.5
30358.5
29305.4
29373.6
29237.1
28321.4
28178.6
28714.9
29009.4
30055
29552.2
30711.4
29578.2
29917
31416.7
31105.5
32349.8
35513.2
38062.7
29442.2
28472.3
28198.1
30265
30445.7
30278.5
30136.6
31763.4
34476.3
37831.3
30845.4
31304.7
32062.5
30761.3
31131.2
29272.9
29493.4
29435.6
29942.8
32513.5
28970.8
27340.3
27557.5
27783.1
28918.8
30608.7
31173.1
31515.8
30291.7
34664.5
30825.4
30825.5
31420
31023.6
30662
29250.5
29574.2
29618
29396.3
30538.4
28350.7
28130.5
26426.9
27367.9
28837.4
30039
31966.3
30301.4
29440.7
28890.2
28772.3
29103.9
29793.8
30034.9
28971
29139.5
29507.7
29263.3
29475.9
30464.8
30328.3
30631.5
30540.7
30191.2
30782.9
31310.9
30370.7
29430.8
30358.2
30295.6
30212.5
29565.8
31049.2
30059.7
30352.1
30401.8
32027.9
31876.3
32496.8
31598.1
30454.1
30447.6
29579.2
30160.5
29797.1
29809.9
28264.9
28566.5
29010.4
29715.9
30122.4
30047
30478.8
30106.9
30870.9
31083.7
30613
29871.3
30484.7
29425.9
30440.5
30728
29334.9
28978.7
29946.6
30471.3
29667.4
29362
30393.4
32019.5
30307.1
31013.7
31334.8
32455.8
30731.5
30176.2
31723.1
31000.1
30101.6
30751.5
29155.7
28648.9
28314.7
28740.3
28893.3