/*--------------------------------*- C++ -*----------------------------------*\
| =========                 |                                                 |
| \\      /  F ield         | OpenFOAM: The Open Source CFD Toolbox           |
|  \\    /   O peration     | Version:  2.4.0-MNF                             |
|   \\  /    A nd           | Web:      www.OpenFOAM.org                      |
|    \\/     M anipulation  |                                                 |
\*---------------------------------------------------------------------------*/
FoamFile
{
    version     2.0;
    format      ascii;
    class       volScalarField;
    location    "5e-05";
    object      meanFreePathCellRatio_Ar;
}
// * * * * * * * * * * * * * * * * * * * * * * * * * * * * * * * * * * * * * //

dimensions      [0 0 0 0 0 0 0];

internalField   nonuniform List<scalar> 
77760
(
2.65584
2.60126
2.67024
2.6529
2.67059
2.54488
2.61559
2.62938
3.01625
3.63461
2.86027
2.96662
2.68817
2.81892
2.82721
2.70075
2.64672
2.76249
3.08293
3.48584
2.60779
2.52928
2.54886
2.51206
2.47489
2.49551
2.44511
2.71917
3.29845
3.37945
2.63859
2.72732
2.7292
2.77616
2.8387
2.74759
2.71852
2.77618
2.8564
3.16162
2.66691
2.69512
2.7749
2.64429
2.62708
2.69404
2.67132
2.86698
2.77513
3.07688
2.61032
2.63793
2.64032
2.73412
2.69097
2.6243
2.86503
3.02252
3.04093
3.06336
2.60496
2.55172
2.57424
2.60507
2.53441
2.64306
2.52502
2.67104
2.74325
2.98084
2.71012
2.74286
2.72881
2.70151
2.76835
2.76946
2.72595
2.79104
2.83954
3.37788
2.6607
2.62296
2.56336
2.61204
2.66012
2.74916
2.76148
2.8779
2.69995
3.50691
2.65753
2.63734
2.69321
2.67972
2.7023
2.66525
2.75496
2.75979
3.00338
3.41037
2.58297
2.66141
2.68193
2.75583
2.79705
2.75327
2.63403
2.4916
2.54411
2.79373
2.73069
2.72088
2.7092
2.68169
2.55195
2.62288
2.64149
2.61865
2.70363
3.0721
2.6156
2.66778
2.77092
2.70534
2.74117
2.74591
2.90797
2.76571
3.01267
3.43038
2.64926
2.6014
2.5353
2.54743
2.55496
2.63815
2.68553
2.83579
2.89618
3.29379
2.67197
2.64737
2.71194
2.87876
2.91865
3.00831
2.91653
2.7669
2.95777
3.51704
2.71663
2.74983
2.71462
2.63966
2.66889
2.58149
2.69899
2.8375
3.2852
3.64614
2.6957
2.73275
2.68787
2.76997
2.71602
2.80512
2.74109
2.70967
2.84294
3.51952
2.72337
2.77938
2.83363
2.77854
2.85388
2.81389
2.85449
2.95632
3.18672
3.34925
2.65236
2.54788
2.43579
2.42755
2.44824
2.56514
2.54367
2.85264
2.64518
3.38973
2.67464
2.75651
2.70306
2.62718
2.55719
2.53122
2.56444
2.57125
2.86865
3.14993
2.69036
2.81099
2.88404
2.98158
3.00965
2.99654
2.94146
2.89563
3.07879
3.38514
2.61788
2.67108
2.61624
2.62211
2.60441
2.62716
2.70123
2.85631
2.89035
3.38689
2.75457
2.88134
2.80143
2.78633
2.79678
2.71284
2.87641
2.61671
2.80504
3.03555
2.62811
2.49629
2.58027
2.64954
2.64065
2.57091
2.71319
2.83476
2.97032
3.3593
2.57397
2.60527
2.6153
2.56057
2.5586
2.65854
2.59445
2.75133
2.94552
3.45405
2.66286
2.6515
2.59968
2.6288
2.69709
2.69957
2.68262
2.6819
2.65126
3.17592
2.57263
2.56472
2.62063
2.55092
2.59657
2.51289
2.67021
2.48282
2.59276
2.96192
2.68371
2.8182
2.7379
2.73157
2.67889
2.68189
2.69976
2.85293
2.69372
2.91353
2.64457
2.59214
2.61341
2.64105
2.71432
2.60937
2.62722
2.72274
2.99193
3.53837
2.61841
2.61344
2.59223
2.59718
2.63765
2.70793
2.75356
2.61661
2.62517
3.24878
2.62932
2.65039
2.60589
2.60294
2.65038
2.62333
2.60342
2.67485
3.00765
3.3305
2.79681
2.80624
2.9166
2.84283
2.88273
2.93272
2.85953
3.0635
3.11984
3.42766
2.68686
2.68039
2.65023
2.66381
2.642
2.70449
2.67316
2.7168
2.84954
3.22387
2.6877
2.65416
2.69838
2.77278
2.74636
2.75489
2.78972
2.78684
2.99612
3.33004
2.60362
2.53883
2.51444
2.51185
2.46334
2.45815
2.52164
2.57221
2.58096
2.91778
2.64891
2.64705
2.65677
2.685
2.74185
2.75908
2.7149
2.59753
2.50844
2.65103
2.65898
2.66427
2.6457
2.65707
2.69159
2.82076
2.84838
2.81124
3.21739
3.53544
2.70303
2.71922
2.73333
2.66878
2.64037
2.83035
2.94988
3.25353
3.02762
3.63384
2.56897
2.60744
2.63051
2.65991
2.83951
2.89525
2.96465
2.98625
3.40585
3.77302
2.71153
2.71697
2.66694
2.70478
2.72621
2.63174
2.71895
2.84079
3.16538
3.13306
2.51008
2.57594
2.6553
2.71662
2.62321
2.57876
2.53007
2.66282
2.6531
2.82478
2.57887
2.62858
2.63189
2.63158
2.78029
2.84733
2.81015
2.86094
2.93803
3.11695
2.69337
2.70505
2.52831
2.55131
2.46614
2.44198
2.5616
2.56852
2.74243
3.01949
2.69799
2.68276
2.65832
2.4686
2.52636
2.53511
2.65427
2.94221
3.09244
3.61987
2.56749
2.46032
2.40226
2.54242
2.5042
2.45874
2.46807
2.70123
2.95669
3.04444
2.68723
2.70359
2.76695
2.67931
2.52967
2.45114
2.72945
2.69026
2.8682
3.28128
2.60235
2.69407
2.6625
2.65551
2.747
2.76666
2.98269
2.97859
2.80282
3.09569
2.69145
2.67911
2.6521
2.72518
2.727
2.66131
2.78083
2.95472
3.02944
2.97414
2.7259
2.68183
2.68505
2.69091
2.72524
2.61097
2.64751
2.60486
2.88534
3.1903
2.62399
2.59129
2.46666
2.44185
2.46258
2.4662
2.48848
2.39705
2.55226
2.89108
2.70802
2.78227
2.79638
2.73421
2.67811
2.55434
2.65249
2.86835
2.688
3.20304
2.5994
2.69775
2.70152
2.66031
2.67113
2.71311
2.72277
3.03563
3.23882
3.2122
2.58138
2.52666
2.60117
2.55979
2.64251
2.68873
2.79502
2.84238
3.11933
3.45999
2.75762
2.70954
2.63314
2.76051
2.73947
2.82175
2.68828
2.65212
2.86632
2.77377
2.65384
2.79331
2.79134
2.76596
2.71903
2.70512
2.75761
2.82112
3.17326
3.26907
2.67631
2.65265
2.66707
2.7137
2.6909
2.81202
2.87639
2.76855
3.01828
3.18469
2.65711
2.66781
2.71943
2.61156
2.65278
2.69203
2.7128
2.69587
2.66803
2.93599
2.55562
2.45375
2.45082
2.59137
2.62679
2.82084
2.82763
2.93238
2.92643
3.22378
2.7043
2.58505
2.4665
2.48067
2.47197
2.4896
2.48451
2.74411
3.05817
3.16029
2.68497
2.7173
2.65093
2.59541
2.57192
2.56208
2.6309
2.78496
3.03641
3.27742
2.69975
2.68268
2.70342
2.74432
2.69191
2.7065
2.86718
3.01206
3.08216
3.01716
2.72738
2.70867
2.80843
2.7283
2.65734
2.698
2.78324
2.99732
2.85234
3.28436
2.68488
2.60069
2.51103
2.54483
2.65055
2.6425
2.72886
2.79135
3.20695
3.32023
2.69472
2.61185
2.71815
2.66828
2.63346
2.63847
2.726
2.75898
3.05179
3.42308
2.61993
2.64412
2.63513
2.60636
2.51402
2.52309
2.41276
2.47863
2.84485
3.05797
2.65705
2.60833
2.67878
2.72618
2.61895
2.65633
2.67597
2.82329
2.80363
3.0965
2.62853
2.70973
2.69812
2.71551
2.711
2.61231
2.61469
2.59236
2.68067
3.06717
2.665
2.65297
2.62461
2.75958
2.78225
2.70735
2.68509
2.64726
2.76659
2.72139
2.64374
2.72585
2.72718
2.70304
2.68306
2.58689
2.56759
2.57927
2.79614
3.14095
2.62776
2.56833
2.59104
2.70926
2.73345
2.84743
2.75315
2.83008
2.89721
3.11619
2.68089
2.68618
2.69913
2.64933
2.59734
2.62005
2.7872
2.8589
3.05606
3.21419
2.64055
2.63124
2.57004
2.68059
2.65077
2.6061
2.62175
2.66941
2.82016
3.06703
2.73911
2.68699
2.71982
2.71973
2.66047
2.54957
2.48991
2.89
3.21221
3.57647
2.56378
2.6149
2.67794
2.66819
2.56932
2.62329
2.71878
3.03487
3.291
3.42517
2.66918
2.64356
2.5962
2.64789
2.69329
3.01226
2.8328
2.70797
2.58757
2.99694
2.732
2.62424
2.52867
2.56568
2.50549
2.49927
2.44432
2.71424
2.80327
3.36927
2.73721
2.65149
2.72003
2.6627
2.58234
2.48307
2.48911
2.77373
3.12738
3.20222
2.61039
2.71584
2.73154
2.62844
2.58133
2.77044
2.90373
2.72727
2.53967
2.82214
2.63856
2.67384
2.67487
2.67643
2.83839
2.59495
2.69339
3.04013
2.95268
3.02356
2.60129
2.76604
2.84195
2.8455
2.96843
2.88172
2.77409
2.96114
3.12592
3.07909
2.71902
2.64309
2.64258
2.733
2.71273
2.9778
2.96778
2.57915
2.82194
2.82166
2.63998
2.60863
2.60373
2.53938
2.61834
2.54659
2.47194
2.42594
2.37491
2.50082
2.64665
2.63876
2.67765
2.7874
2.68246
2.67586
2.64674
2.67643
2.68325
2.79349
2.72273
2.72528
2.71442
2.74717
2.72924
2.78397
3.02938
3.16432
3.15719
2.99965
2.64391
2.65204
2.57333
2.5462
2.61497
2.64251
2.56234
2.59603
2.86106
2.97629
2.75809
2.82167
2.69989
2.70112
2.54219
2.56922
2.6763
2.78127
2.90126
3.07395
2.62481
2.6091
2.65897
2.66731
2.68601
2.65541
2.80399
2.78749
2.80238
3.00005
2.6557
2.67345
2.73504
2.96036
2.97796
3.0252
3.01137
2.98633
3.28776
3.34226
2.70216
2.6653
2.54684
2.56191
2.70804
2.75892
2.73926
2.82349
3.11362
3.23505
2.62424
2.64709
2.82229
2.77341
2.64502
2.58549
2.72906
2.65899
2.69705
2.70891
2.6049
2.61144
2.71322
2.60295
2.60967
2.62685
2.91954
3.0842
3.2066
3.01201
2.6842
2.61106
2.58855
2.68146
2.70824
2.67834
2.70262
2.89002
3.12557
3.20329
2.6336
2.58386
2.5711
2.57192
2.63385
2.61115
2.78506
3.08581
3.19938
3.34917
2.66766
2.66749
2.63242
2.55509
2.52879
2.53897
2.54414
2.41251
2.48732
2.86167
2.70529
2.74752
2.81713
2.76652
2.67196
2.71237
2.61448
2.62676
2.81935
3.27165
2.61452
2.62262
2.70134
2.86564
2.83058
2.76699
2.79213
2.75979
2.83053
2.98836
2.59513
2.55382
2.58161
2.52902
2.71465
2.83166
2.88329
2.70253
2.83889
2.99249
2.63026
2.66469
2.69994
2.66205
2.54984
2.56636
2.51871
2.6521
2.98362
3.12169
2.67019
2.73055
2.8536
2.79621
2.87786
2.92005
2.73026
2.74796
2.96828
3.03705
2.65758
2.68925
2.59149
2.63069
2.7058
2.68065
2.72662
2.84345
3.21926
3.12905
2.65067
2.64784
2.7086
2.67672
2.6839
2.63537
2.64155
2.72386
2.85391
3.10551
2.68382
2.71157
2.69632
2.66504
2.76349
2.77764
2.60874
2.72574
2.73967
2.86809
2.58689
2.56883
2.60471
2.69577
2.68917
2.63675
2.63539
2.7968
2.97824
2.97793
2.70525
2.70004
2.75804
2.65239
2.70309
2.80231
2.88055
3.05764
2.95319
3.04488
2.54432
2.48549
2.50908
2.54111
2.69708
2.72992
2.86839
3.02943
3.31952
3.38006
2.83688
2.96265
2.88579
2.77793
2.74758
2.79885
2.67368
2.73243
2.76644
3.03341
2.66488
2.79126
2.8197
2.69767
2.68143
2.7106
2.72613
3.05079
3.06481
2.95051
2.64931
2.6386
2.73517
2.65648
2.74497
2.77046
2.93074
2.66974
2.70935
2.66595
2.6303
2.56229
2.529
2.58657
2.65062
2.72158
2.84589
2.88456
2.72333
3.06051
2.7103
2.82335
2.79869
2.77759
2.80413
2.74883
3.17685
3.13098
3.17547
3.16084
2.6631
2.73235
2.73131
2.66285
2.65913
2.65398
2.75383
3.14281
3.37099
3.38015
2.62798
2.54542
2.60947
2.53361
2.64922
2.62293
2.76206
2.82442
2.51674
2.99551
2.61843
2.64514
2.75507
2.59741
2.55668
2.66776
2.7184
2.70161
2.63319
2.83561
2.68509
2.76722
2.70895
3.00692
2.75746
2.71832
2.70598
2.65291
2.77627
2.89726
2.5726
2.53374
2.5988
2.66804
2.76892
2.80199
2.76153
2.72534
2.88196
3.01766
2.66062
2.66904
2.69606
2.60213
2.59413
2.60386
2.79674
2.65478
2.76076
2.58344
2.64836
2.61946
2.6351
2.62685
2.57455
2.61782
2.71442
2.92011
2.83935
2.7105
2.73683
2.75797
2.6547
2.57264
2.43211
2.47525
2.47383
2.5834
2.76226
3.11864
2.65247
2.74803
2.63829
2.63074
2.65594
2.6301
2.71914
2.61496
2.58393
2.79233
2.67062
2.65941
2.7537
2.7339
2.94542
2.95272
2.80745
3.18478
2.93335
3.35759
2.66098
2.6905
2.66973
2.64767
2.60768
2.7124
2.71165
2.74854
2.84485
2.82897
2.65281
2.68332
2.64231
2.616
2.5382
2.56935
2.63466
2.96441
2.77786
2.79021
2.62439
2.59372
2.56785
2.71788
2.76577
2.82619
2.96727
3.13658
3.19621
3.13791
2.6663
2.73155
2.72082
2.58904
2.65915
2.86025
2.81309
2.86136
2.8623
2.64758
2.80201
2.79798
2.75978
2.71261
2.71942
2.58926
2.59421
2.65197
2.89554
3.02478
2.64836
2.80888
2.6982
2.69763
2.69426
2.61665
2.48306
2.45685
2.59268
2.69469
2.71575
2.59101
2.51048
2.5186
2.51704
2.60833
2.85905
2.75784
2.67651
2.75016
2.67364
2.7113
2.75015
2.81258
2.74743
2.72466
2.65554
2.54925
2.83
2.42912
2.58308
2.60876
2.75757
2.82171
2.74858
2.82475
3.07018
2.83051
2.85081
3.02943
2.73298
2.68537
2.65304
2.68441
2.61559
2.5926
2.59764
2.58033
2.88243
3.07999
2.64083
2.65491
2.68124
2.72123
2.82792
2.73219
2.78661
2.63644
2.67103
3.03669
2.60785
2.76186
2.78515
2.66619
2.57587
2.69141
2.64564
2.78013
2.9921
2.67183
2.59925
2.60502
2.5825
2.61883
2.6157
2.60478
2.58559
2.60742
2.618
2.63938
2.73264
2.60654
2.57956
2.59485
2.60349
2.58589
2.54549
2.58851
2.54702
2.76721
2.66791
2.70214
2.73692
2.64888
2.50546
2.49667
2.58622
2.95781
2.90907
3.0825
2.74999
2.75266
2.66431
2.62607
2.78799
2.83833
2.84288
2.9138
2.75182
2.88384
2.63859
2.60707
2.57663
2.59307
2.55899
2.66738
2.78682
2.7261
2.87394
2.97651
2.70822
2.7284
2.75279
2.8004
2.85596
2.88855
2.96156
2.98058
2.80185
2.66816
2.77034
2.78653
2.7688
2.60532
2.63906
2.54901
2.45451
2.54977
2.60996
2.76985
2.67092
2.75776
2.7244
2.69201
2.68056
2.60186
2.76684
2.81678
3.32854
3.41746
2.74846
2.84456
2.77856
2.63174
2.75298
2.95671
2.96752
2.70612
2.82733
2.70983
2.50306
2.44558
2.59916
2.76001
2.81355
2.86646
2.88608
2.89768
2.8749
2.8536
2.58903
2.62161
2.47961
2.48016
2.66403
2.61614
2.67148
2.70398
2.66874
2.63666
2.76338
2.67397
2.59449
2.59822
2.44779
2.58539
2.59086
2.50988
2.54839
2.6277
2.59726
2.6668
2.63567
2.68925
2.60423
2.66528
2.68309
2.68498
2.79883
3.17692
2.70297
2.63517
2.58733
2.79731
2.89539
2.91654
3.02483
2.90293
2.8744
3.14327
2.66721
2.79114
2.76367
2.64206
2.71581
2.7152
2.71074
2.82546
2.87351
2.96935
2.72812
2.71467
2.6662
2.73389
2.81628
2.97091
2.80571
2.69584
2.99092
3.12303
2.73168
2.65077
2.74923
2.76792
2.77402
2.81571
2.63461
2.70852
2.95566
2.84559
2.66847
2.68732
2.74935
2.7967
2.88117
3.02239
2.80367
3.13896
2.82846
2.70799
2.75212
2.75941
2.73362
2.73854
2.72435
2.69182
2.81117
3.04817
2.98405
2.90188
2.69565
2.72892
2.77502
2.77769
2.78817
2.82033
2.87804
2.90232
2.98568
2.84763
2.62027
2.56804
2.59272
2.54846
2.51336
2.61522
2.6697
2.63924
2.80318
3.12051
2.63823
2.58199
2.65708
2.6371
2.76551
2.94685
2.81005
2.78577
2.85173
3.07006
2.6963
2.70718
2.84512
2.87347
2.76261
2.74868
2.85089
2.82262
2.80313
2.99872
2.67037
2.5443
2.47338
2.71899
2.65542
2.66214
2.6713
2.79171
2.62903
2.80434
2.63218
2.56851
2.71372
2.77901
2.70115
2.65279
2.70527
2.49366
2.53995
2.72771
2.70981
2.72573
2.67593
2.64459
2.61634
2.7159
2.78668
2.69911
2.76771
2.89444
2.73124
2.77813
2.82325
2.84749
2.90528
2.85208
2.71714
2.84146
2.82326
2.86047
2.72681
2.77675
2.89698
2.97107
2.89264
2.81549
2.72366
2.6065
2.69618
2.74567
2.84106
2.82691
2.82203
2.77747
2.82747
2.83904
2.81703
3.1681
3.01619
2.77592
2.7028
2.77694
2.75644
2.71206
2.70915
2.76663
2.76577
2.76508
2.78013
2.91089
2.67927
2.6092
2.6854
2.64991
2.8418
2.96528
2.78356
2.8893
2.97402
2.6889
2.57403
2.60723
2.63184
2.73557
2.75349
2.73154
2.59257
2.63093
2.65221
2.70677
2.72912
2.80843
2.71406
2.67919
2.89188
2.80733
2.57022
2.51725
2.52222
2.75901
2.69908
2.70274
2.75041
2.76986
2.67938
2.7142
2.63592
2.65314
2.75124
2.73828
2.61282
2.75073
2.81039
2.92524
2.94472
2.94553
2.83686
3.00002
2.9911
3.14995
2.68742
2.58311
2.49224
2.52168
2.69276
2.69643
2.74298
2.67858
2.54101
2.68215
2.73658
2.75287
2.76212
2.75653
2.75195
2.67199
2.61578
2.63437
2.69071
2.76723
2.66901
2.76723
2.81326
2.70883
2.68995
2.73529
2.84806
3.04984
2.98971
3.02887
2.70392
2.72401
2.75262
2.8028
2.86287
2.87257
2.9121
2.96268
3.01539
3.02883
2.64738
2.74822
2.87153
2.87499
2.91326
2.80852
2.8727
3.09263
3.09218
3.11217
2.73143
2.7085
2.74526
2.75446
2.76527
2.82004
2.83119
2.92609
2.89391
3.14862
2.68638
2.66945
2.67561
2.65867
2.64336
2.70579
2.83982
3.00672
2.86578
2.74593
2.73321
2.7346
2.72371
2.70967
2.64055
2.63492
2.69375
2.65528
2.47098
2.84122
2.59173
2.60706
2.62594
2.74534
2.66534
2.74342
2.71831
2.80361
2.83547
2.61595
2.75222
2.64093
2.68401
2.67075
2.69491
2.61022
2.59275
2.73957
2.79814
2.74981
2.61115
2.77315
2.77953
2.65148
2.60651
2.65984
2.67272
2.68026
2.72379
2.89638
2.70826
2.75015
2.73999
2.70844
2.61659
2.52964
2.43016
2.49462
2.74703
2.68191
2.56588
2.53851
2.58801
2.65841
2.6998
2.76043
2.77238
2.59466
2.58679
2.71179
2.62605
2.71059
2.73355
2.62794
2.54042
2.46082
2.55162
2.59147
2.85729
3.28089
2.70557
2.76881
2.8673
2.79693
2.82129
3.11214
2.96714
2.93664
3.14125
3.34782
2.62593
2.58322
2.60221
2.67894
2.58874
2.61693
2.80584
3.01056
3.5259
3.65997
2.59757
2.5541
2.68341
2.72034
2.77741
2.74531
2.68924
2.8794
3.03742
2.93203
2.65875
2.63553
2.56606
2.51699
2.47589
2.47479
2.50001
2.63752
2.70761
2.748
2.70398
2.67416
2.72283
2.62006
2.60652
2.74923
2.75091
2.63925
2.64802
2.63796
2.70779
2.61816
2.56691
2.64473
2.68379
2.77837
2.76419
2.66183
2.75372
2.81993
2.66535
2.669
2.71906
2.69035
2.65816
2.55604
2.46344
2.53639
2.74135
2.58189
2.62021
2.69865
2.70051
2.69407
2.90461
2.72448
2.70952
2.67171
2.57601
2.57202
2.63512
2.63361
2.62914
2.63116
2.63448
2.65684
2.60555
2.531
2.48658
2.59209
2.76316
2.77465
2.67732
2.64718
2.52307
2.61731
2.78349
2.72957
2.89677
2.77976
2.58809
2.62156
2.68268
2.70456
2.78848
2.67634
2.77702
2.62838
2.64357
2.73908
2.8162
2.82391
2.74869
2.6517
2.69581
2.86521
2.86651
2.68608
2.67489
2.6395
2.59963
2.53387
2.54559
2.63062
2.69034
2.60746
2.65975
2.69729
2.58887
2.54431
2.73337
2.7268
2.65246
2.6269
2.53793
2.50572
2.50272
2.39004
2.39394
2.46534
2.62472
2.52998
2.55279
2.5905
2.78155
2.81613
2.66746
2.59439
2.49104
2.62414
2.61413
2.55258
2.61172
2.53889
2.58566
2.65328
2.85034
2.88932
2.86877
2.90883
2.65085
2.62872
2.68361
2.74575
2.71863
2.70988
2.73772
2.84293
2.68724
2.83081
2.6037
2.64032
2.70983
2.8887
2.91121
2.8162
2.71526
2.93042
2.83386
2.77776
2.65115
2.71467
2.76514
2.71591
2.68231
2.8933
2.79352
2.70864
2.59677
2.72978
2.599
2.53565
2.47581
2.44362
2.57227
2.54044
2.5625
2.62487
2.68955
2.78161
2.6543
2.66909
2.63481
2.56728
2.6661
2.56555
2.55244
2.51517
2.55274
2.4841
2.62454
2.6286
2.56642
2.60645
2.63071
2.68819
2.63027
2.67141
2.64711
2.808
2.52771
2.48603
2.41133
2.43248
2.31792
2.27914
2.433
2.49178
2.47042
2.6812
2.67057
2.63256
2.51715
2.5481
2.70134
2.76125
2.77195
2.86442
2.80986
2.92143
2.59108
2.59088
2.65442
2.63776
2.64682
2.54309
2.68545
2.67657
2.56278
2.67833
2.70813
2.72803
2.70642
2.65853
2.6399
2.67513
2.61458
2.88696
2.78259
2.85274
2.68496
2.63052
2.59376
2.68036
2.63635
2.55914
2.67673
2.47395
2.59521
2.68761
2.67202
2.6609
2.71144
2.69529
2.7004
2.69607
2.73793
2.7538
2.67755
2.6686
2.58827
2.61615
2.59237
2.53935
2.60459
2.68307
2.84567
2.69247
2.76372
2.71598
2.66104
2.66002
2.72717
2.72785
2.80417
2.7774
2.84251
2.67601
2.57099
2.77861
2.71956
2.67004
2.69878
2.65951
2.53345
2.54153
2.57867
2.68747
2.75009
2.70211
2.55908
2.5156
2.52984
2.5531
2.59378
2.59105
2.6333
2.69228
2.5229
2.43051
2.65968
2.60721
2.59547
2.60832
2.70949
2.74878
2.86953
2.96666
2.81315
2.95739
2.63726
2.46591
2.44117
2.55634
2.63578
2.68382
2.65914
2.78203
2.81678
2.72562
2.69004
2.78991
2.69173
2.68777
2.60694
2.66265
2.54805
2.46924
2.47237
2.43883
2.53916
2.52922
2.60518
2.65239
2.75424
2.8057
2.88571
2.82592
2.83714
3.15821
2.70691
2.67479
2.65288
2.79959
3.06537
2.797
2.73971
2.79335
2.79286
3.31862
2.70363
2.80093
2.83245
2.97485
2.96208
2.80331
2.89154
3.06122
3.35537
3.35345
2.61807
2.63725
2.5841
2.51566
2.58436
2.81958
2.7616
2.94356
3.06611
2.97478
2.669
2.6134
2.66418
2.7502
2.65134
2.62131
2.56888
2.58624
2.70314
2.62915
2.61448
2.53297
2.49753
2.4658
2.52663
2.63001
2.63194
2.48904
2.59159
2.57614
2.65054
2.66631
2.73815
2.71242
2.85788
2.80764
2.96965
2.88913
2.7501
2.741
2.61686
2.57641
2.61577
2.64964
2.64385
2.75835
2.79149
2.66923
2.81311
2.71538
2.74276
2.86025
2.84841
2.79773
2.62798
2.61401
2.62506
2.67991
2.63816
2.85202
2.65878
2.59635
2.58029
2.61114
2.62515
2.65186
2.68118
2.74549
2.66456
2.76481
2.65225
2.58708
2.62936
2.621
2.74462
2.82091
2.81699
3.02442
3.0447
3.24058
2.63087
2.74093
2.70853
2.73974
2.68993
2.62909
2.6754
2.6502
2.64887
2.75694
2.68034
2.68155
2.69419
2.61968
2.54008
2.51305
2.54106
2.61319
2.66485
2.7454
2.62917
2.62916
2.78202
2.74109
2.75917
2.76953
2.69018
2.76185
2.85725
2.79333
2.70105
2.73016
2.6741
2.6075
2.6187
2.47787
2.50692
2.41011
2.49404
2.42604
2.61182
2.535
2.50083
2.43246
2.47224
2.37313
2.3089
2.32245
2.56037
2.63055
2.56839
2.61477
2.73024
2.75501
2.69102
2.66068
2.7745
2.68688
2.58983
2.58789
2.73454
2.70548
2.68546
2.62124
2.73376
2.73643
2.71596
2.62566
2.66278
2.64116
2.54645
2.5503
2.58916
2.66095
2.66433
2.67082
2.68467
2.77119
2.67873
2.56725
2.68731
2.66373
2.79851
2.75573
2.69518
2.65306
2.62903
2.6936
2.71964
2.74943
2.69366
2.64638
2.59852
2.62874
2.71127
2.71953
2.59273
2.75499
2.69734
2.74842
2.58078
2.67436
2.72289
2.66394
2.69478
2.68432
2.69748
2.81865
2.77617
2.8285
2.64074
2.61276
2.68448
2.69564
2.75171
2.86321
2.9942
2.97788
3.07921
2.94307
2.64437
2.67366
2.69112
2.60113
2.57077
2.55021
2.53238
2.4595
2.46088
2.46923
2.66045
2.53787
2.54035
2.57809
2.61411
2.56783
2.52938
2.49071
2.56523
2.59401
2.61632
2.63766
2.52094
2.51775
2.53659
2.63827
2.77205
2.55624
2.60741
2.50422
2.65503
2.53618
2.48651
2.53946
2.57043
2.61107
2.62955
2.58686
2.53941
2.76753
2.60626
2.6379
2.6694
2.59797
2.59457
2.72429
2.72113
2.76018
2.58292
2.59006
2.79123
2.88609
2.80948
2.81054
2.8232
2.8836
3.0163
3.01862
3.06676
3.0025
2.60081
2.58202
2.62703
2.62898
2.66722
2.65914
2.72227
2.63495
2.63761
2.60044
2.71198
2.76334
2.70856
2.6996
2.64807
2.64003
2.73493
2.87491
2.95346
3.06047
2.65372
2.70864
2.65946
2.69734
2.80207
2.97069
2.83448
2.83065
2.76377
2.84378
2.69221
2.7669
2.76686
2.80877
2.61011
2.54979
2.51507
2.52216
2.72334
2.59201
2.64339
2.76748
2.83935
2.7102
2.70143
2.79461
2.65321
2.62442
2.56566
2.50793
2.71827
2.70742
2.70263
2.64822
2.52064
2.52194
2.55387
2.6038
2.63963
2.67778
2.75473
2.69835
2.66685
2.67933
2.70449
2.72637
2.64401
2.68446
2.74002
2.72792
2.66367
2.67901
2.68669
2.702
2.75715
2.65507
2.75889
2.75693
2.84547
3.37632
2.58096
2.57736
2.61265
2.54651
2.59527
2.66703
2.72962
2.85381
3.02375
3.09495
2.75355
2.68602
2.69273
2.84098
2.84239
2.80186
2.82059
2.88944
3.15417
3.0784
2.7364
2.76782
2.82698
2.89758
2.8355
2.80202
2.83504
2.76463
2.74384
2.85859
2.64096
2.69389
2.66388
2.7024
2.62985
2.76456
2.62231
2.55712
2.58695
2.60047
2.67477
2.63103
2.60618
2.71482
2.72166
2.58672
2.69599
2.85701
2.76824
2.86898
2.60825
2.63177
2.54264
2.57818
2.50988
2.54324
2.64556
2.63823
2.71452
2.65922
2.74436
2.79445
2.75616
2.7748
2.8606
2.8351
2.87403
2.99689
2.79277
2.85767
2.69729
2.76113
2.70974
2.66763
2.71354
2.79829
2.85502
2.93698
2.86858
2.90571
2.64424
2.62118
2.71952
2.70273
2.81231
2.79918
2.75459
2.78106
2.8108
2.72006
2.68211
2.67472
2.61922
2.67891
2.61258
2.72657
2.72638
2.74429
2.83876
2.90599
2.63684
2.58985
2.65574
2.58884
2.66598
2.79999
2.81987
2.67295
2.74634
2.72012
2.67761
2.56134
2.63961
2.69774
2.64635
2.66706
2.67267
2.71485
2.73995
2.69082
2.63494
2.62846
2.74638
2.73346
2.73518
2.89937
2.89073
2.82593
2.67533
2.68467
2.68067
2.70251
2.72968
2.67292
2.57848
2.65082
2.48878
2.44214
2.57607
2.7094
2.67363
2.6562
2.66413
2.63041
2.65927
2.6565
2.76428
2.8428
2.82711
2.94289
2.74958
2.83195
2.7283
2.64233
2.64652
2.83743
2.73656
2.79172
2.8636
2.76973
2.60352
2.583
2.53144
2.65388
2.62099
2.5749
2.60379
2.6284
2.6915
2.61351
2.73972
2.76578
2.68567
2.66132
2.69718
2.72606
2.79038
2.76268
2.66193
2.76337
2.69843
2.6693
2.54719
2.6251
2.7862
2.74197
2.67278
2.68493
2.81137
2.92724
2.63464
2.69452
2.7609
2.72846
2.78502
2.79879
2.75699
2.77084
2.87499
2.9275
2.76092
2.88032
2.77779
2.75906
2.7793
2.80446
2.7729
2.77516
2.63456
2.5852
2.66914
2.57079
2.66112
2.6451
2.58331
2.58926
2.67886
2.7473
2.74633
2.61131
2.67122
2.64811
2.61062
2.65503
2.77809
2.69312
2.63589
2.53108
2.4845
2.5036
2.63926
2.73148
2.62031
2.6342
2.66265
2.65895
2.73538
2.77519
2.7317
2.6998
2.68709
2.55589
2.60223
2.70168
2.64878
2.67821
2.51833
2.6229
2.71301
2.66981
2.69529
2.69727
2.64113
2.58182
2.56868
2.60186
2.65686
2.59219
2.77576
2.96289
2.63483
2.54291
2.50137
2.57782
2.61394
2.6764
2.56577
2.67376
2.66403
2.58715
2.69344
2.73251
2.80317
2.66064
2.53049
2.58795
2.69722
2.90445
2.65524
2.6756
2.66333
2.64856
2.51579
2.5319
2.47413
2.56769
2.65317
2.56833
2.51088
2.61708
2.56036
2.5354
2.57097
2.62489
2.71361
2.77112
2.81798
2.78575
2.79359
2.81146
2.78261
2.8524
2.9238
2.92957
2.88239
2.9439
2.94962
2.82313
2.74773
2.92919
2.69696
2.58728
2.57856
2.54033
2.6764
2.65635
2.68716
2.77916
2.79489
2.7191
2.65172
2.52057
2.56647
2.62633
2.54878
2.56295
2.54483
2.56722
2.53398
2.59379
2.72883
2.80389
2.68709
2.72818
2.69618
2.84704
2.91431
2.88818
2.92903
2.87647
2.57958
2.54011
2.6675
2.62455
2.64346
2.61462
2.68308
2.71276
2.7184
2.73418
2.66394
2.64338
2.6239
2.70404
2.72153
2.73917
2.63849
2.72187
2.80044
3.16345
2.75561
2.73429
2.7053
2.60048
2.46904
2.60937
2.66027
2.57537
2.85542
3.02297
2.69455
2.64442
2.7585
2.82591
2.83572
2.86353
2.95067
3.07331
3.03109
3.10319
2.70319
2.75501
2.94056
2.79723
2.76921
2.75524
2.86334
2.87794
2.9437
3.25113
2.62271
2.56989
2.58768
2.68373
2.77092
2.861
2.89884
2.96063
3.32257
3.12016
2.63227
2.68014
2.68833
2.59228
2.55904
2.54597
2.60077
2.73729
2.681
2.62357
2.72024
2.79982
2.74518
2.69793
2.79514
2.76413
2.8563
2.67912
2.53949
2.73114
2.61006
2.56572
2.55138
2.66921
2.65354
2.65911
2.73888
2.91359
2.82921
2.91478
2.79064
2.73855
2.79805
2.70863
2.599
2.62827
2.56562
2.69407
2.77407
2.86024
2.65513
2.63779
2.55598
2.64472
2.82627
2.65624
2.71362
2.67916
2.6116
2.69164
2.71132
2.77789
2.89993
2.88827
2.86998
2.87709
2.67695
2.64607
2.74195
2.90939
2.81222
2.87793
2.80921
2.80788
2.77744
2.66594
2.63143
2.61302
2.47139
2.44556
2.53257
2.61374
2.58009
2.54309
2.57282
2.67526
2.66129
2.59199
2.63867
2.63684
2.69759
2.54252
2.61451
2.66345
2.76621
2.71108
2.78953
2.75766
2.67839
2.78061
2.58349
2.51915
2.42777
2.51462
2.58131
2.59245
2.59715
2.68342
2.54501
2.65596
2.63917
2.72914
2.72133
2.64571
2.72506
2.87881
2.69939
2.68647
2.60956
2.63733
2.56089
2.49233
2.57716
2.5948
2.77939
2.63869
2.69499
2.91541
2.69879
2.81112
2.61484
2.57766
2.61904
2.67792
2.72343
2.68283
2.72247
2.7259
2.65417
2.70791
2.69668
2.61058
2.63519
2.67044
2.6096
2.73561
2.84207
2.71426
2.68037
2.5251
2.62185
2.63754
2.65222
2.62529
2.55016
2.5252
2.49592
2.44923
2.38008
2.37343
2.63466
2.59879
2.70233
2.71086
2.77319
2.74058
2.73653
2.67252
2.72529
2.8925
2.61102
2.6626
2.73696
2.77959
2.86333
2.93766
2.90153
2.85581
2.88156
2.70615
2.80377
2.75763
2.57086
2.6127
2.63632
2.65327
2.66569
2.76585
2.7846
2.91543
2.52379
2.46349
2.51787
2.50717
2.4917
2.43578
2.42982
2.45516
2.51369
2.47534
2.63247
2.71545
2.88909
2.93601
2.84155
2.80913
2.90017
2.86697
2.86248
2.96239
2.64395
2.72031
2.71741
2.72194
2.8176
2.993
2.87985
2.9162
3.07466
3.10187
2.59035
2.62175
2.70198
2.59206
2.63472
2.64316
2.66778
2.66364
2.85365
2.7027
2.71198
2.72188
2.73856
2.71043
2.69924
2.74311
2.82729
2.76199
2.77662
2.82994
2.60849
2.53474
2.58596
2.65407
2.6083
2.60167
2.61088
2.69425
2.57992
2.56684
2.6878
2.63034
2.58868
2.63502
2.66552
2.66498
2.68627
2.8194
2.77276
2.67083
2.74846
2.75297
2.8541
2.86377
2.90121
2.9878
2.73841
2.57855
2.59218
2.59458
2.6032
2.48886
2.53487
2.46137
2.58145
2.61567
2.52466
2.59753
2.70137
2.74445
2.59648
2.67893
2.7456
2.74742
2.66599
2.5917
2.63277
2.62672
2.76875
2.62877
2.61253
2.59438
2.54127
2.56829
2.46744
2.51303
2.46795
2.40374
2.37807
2.45749
2.62277
2.6446
2.62095
2.61866
2.5927
2.56066
2.57899
2.58823
2.55571
2.64096
2.57451
2.66992
2.64537
2.60235
2.75101
2.76257
2.70257
2.69841
2.68583
2.68076
2.59588
2.56538
2.58456
2.51719
2.49131
2.49108
2.6045
2.56784
2.67139
3.13796
2.58253
2.58962
2.64292
2.70889
2.78016
2.74132
2.84589
2.94073
3.0372
3.15597
2.61992
2.72561
2.73223
2.60232
2.75271
2.94415
2.94247
2.93406
3.02489
3.05173
2.65623
2.53193
2.43879
2.51142
2.52958
2.52922
2.72098
2.56315
2.521
2.81161
2.66792
2.66258
2.67072
2.55819
2.57543
2.55085
2.47546
2.49317
2.64265
2.69224
2.61718
2.54751
2.65945
2.69111
2.67909
2.68202
2.7201
2.62949
2.67659
2.80062
2.59541
2.64475
2.68841
2.76596
2.70764
2.65846
2.71761
2.60982
2.65267
2.79901
2.7512
2.78795
2.90127
2.82699
2.79953
2.88734
2.74423
2.71397
2.79973
2.88742
2.72494
2.64356
2.61076
2.74141
2.81817
2.7814
2.77213
2.66356
2.61159
2.79844
2.68011
2.8054
2.76265
2.60286
2.51628
2.54861
2.58724
2.62737
2.74299
2.78705
2.53768
2.46643
2.48572
2.4529
2.40096
2.46118
2.62833
2.67238
2.67617
2.74437
2.63956
2.63493
2.52735
2.49767
2.54665
2.56246
2.53517
2.55634
2.69764
2.80558
2.69407
2.74612
2.80836
2.79348
2.75646
2.75739
2.75348
2.69462
2.67579
2.64266
2.77795
2.84544
2.75195
2.60354
2.61304
2.72904
2.76652
2.60995
2.50872
2.58538
2.65393
2.63789
2.51942
2.62715
2.55409
2.47323
2.4882
2.53041
2.51442
2.50686
2.49218
2.44047
2.50869
2.526
2.55024
2.42543
2.42489
2.48267
2.46795
2.49187
2.71491
2.72422
2.75677
2.77342
2.69283
2.65883
2.5683
2.60433
2.58184
2.50009
2.70026
2.75962
2.81948
2.81562
2.72712
2.68448
2.77451
2.70767
2.66656
2.62591
2.6504
2.64244
2.70554
2.62575
2.64498
2.52816
2.5688
2.67378
2.78982
2.83519
2.66413
2.65126
2.46707
2.48127
2.55467
2.60602
2.6121
2.53282
2.59143
2.65609
2.65775
2.60835
2.7385
2.66306
2.6083
2.60444
2.5795
2.61147
2.59036
2.57425
2.73838
2.7957
2.83834
2.8258
2.86127
2.75579
2.72125
2.70021
2.74274
2.70933
2.73257
2.76488
2.86046
2.97524
2.97856
3.02183
2.93871
2.7583
2.65035
2.79304
2.5941
2.61935
2.59996
2.62177
2.69872
2.65739
2.68706
2.56749
2.65755
2.6071
2.76535
2.75772
2.70619
2.61128
2.54054
2.52673
2.51808
2.5585
2.60221
2.70488
2.64978
2.60191
2.60518
2.58147
2.53421
2.52932
2.56461
2.64158
2.67043
2.6567
2.62017
2.63513
2.69754
2.7081
2.62242
2.59711
2.63862
2.56683
2.55437
2.49277
2.77149
2.73837
2.70897
2.64609
2.69361
2.68626
2.66566
2.68178
2.73473
2.75602
2.58556
2.65633
2.58161
2.5161
2.58063
2.56709
2.5571
2.59791
2.56424
2.50723
2.60722
2.58846
2.66897
2.61816
2.58982
2.67897
2.69946
2.69314
2.67828
2.67952
2.68141
2.64194
2.64824
2.64014
2.61487
2.66081
2.57762
2.66372
2.77351
2.76905
2.68623
2.81298
2.77195
2.879
2.8593
2.79903
2.71336
2.7276
2.75887
2.85817
2.62284
2.62013
2.59092
2.53144
2.54421
2.60084
2.64127
2.6579
2.7431
2.66783
2.72928
2.75158
2.77014
2.81665
2.78967
2.74255
2.77496
2.79336
2.69761
2.73655
2.6234
2.62537
2.57016
2.51128
2.58066
2.59883
2.67329
2.6819
2.61441
2.63249
2.66802
2.61282
2.69222
2.7507
2.70474
2.7367
2.8302
2.81825
2.79268
2.7805
2.6618
2.72813
2.64266
2.64623
2.63856
2.82564
2.62925
2.82029
2.98518
3.13412
2.68734
2.78357
2.79142
2.60927
2.59902
2.61117
2.64686
2.76446
3.01278
3.38941
2.5588
2.54907
2.52663
2.59148
2.77691
2.76718
2.86407
2.79594
2.67244
3.41572
2.87112
3.02228
3.0023
2.95946
2.82511
2.625
2.5938
2.7193
2.74419
2.93183
2.58756
2.56236
2.47968
2.51791
2.58737
2.74941
2.7105
2.72752
2.85992
3.12476
2.7937
2.82172
3.02596
2.88764
2.74645
2.66284
2.67941
2.70431
2.88968
2.90795
2.74711
2.71639
2.65078
2.61914
2.6719
2.70428
2.74958
2.70904
2.68549
2.72814
2.67103
2.58635
2.57386
2.5989
2.59127
2.59037
2.62415
2.69254
2.68542
2.73437
2.61488
2.65451
2.57072
2.63916
2.62807
2.60901
2.43745
2.46456
2.59809
2.53578
2.68913