/*--------------------------------*- C++ -*----------------------------------*\
| =========                 |                                                 |
| \\      /  F ield         | OpenFOAM: The Open Source CFD Toolbox           |
|  \\    /   O peration     | Version:  2.4.0-MNF                             |
|   \\  /    A nd           | Web:      www.OpenFOAM.org                      |
|    \\/     M anipulation  |                                                 |
\*---------------------------------------------------------------------------*/
FoamFile
{
    version     2.0;
    format      ascii;
    class       volScalarField;
    location    "5e-05";
    object      meanCollisionTime_Ar;
}
// * * * * * * * * * * * * * * * * * * * * * * * * * * * * * * * * * * * * * //

dimensions      [0 0 1 0 0 0 0];

internalField   nonuniform List<scalar> 
77760
(
3.28604e-05
3.20225e-05
3.11861e-05
3.09426e-05
3.12996e-05
3.11649e-05
3.0961e-05
3.22689e-05
2.90713e-05
2.2008e-05
3.33162e-05
3.40811e-05
3.36413e-05
3.58055e-05
3.5594e-05
3.43451e-05
3.34658e-05
3.19059e-05
2.9717e-05
2.54392e-05
3.27527e-05
3.1674e-05
3.21597e-05
3.18302e-05
3.15871e-05
3.18892e-05
3.08964e-05
3.20209e-05
2.84464e-05
2.89221e-05
3.38949e-05
3.47982e-05
3.43697e-05
3.54667e-05
3.61885e-05
3.4012e-05
3.35674e-05
3.04965e-05
2.93556e-05
2.91284e-05
3.308e-05
3.38782e-05
3.51036e-05
3.3202e-05
3.24573e-05
3.34137e-05
3.2844e-05
3.1524e-05
2.94892e-05
2.79452e-05
3.3673e-05
3.42727e-05
3.42001e-05
3.57416e-05
3.54254e-05
3.41407e-05
3.29937e-05
3.08982e-05
3.01511e-05
3.04798e-05
3.36635e-05
3.25967e-05
3.27897e-05
3.3456e-05
3.29055e-05
3.14991e-05
3.26605e-05
3.14836e-05
3.20184e-05
3.15518e-05
3.33958e-05
3.41561e-05
3.44e-05
3.4312e-05
3.54701e-05
3.52028e-05
3.467e-05
3.48377e-05
3.42225e-05
2.65859e-05
3.34613e-05
3.27357e-05
3.18585e-05
3.27946e-05
3.36219e-05
3.49639e-05
3.50374e-05
3.35363e-05
3.31367e-05
2.65258e-05
3.34858e-05
3.36427e-05
3.45406e-05
3.42387e-05
3.43059e-05
3.36344e-05
3.50599e-05
3.47413e-05
3.24112e-05
2.96518e-05
3.32727e-05
3.3954e-05
3.35061e-05
3.40304e-05
3.46796e-05
3.40229e-05
3.30017e-05
3.16408e-05
3.05014e-05
2.7181e-05
3.38189e-05
3.33407e-05
3.35594e-05
3.25662e-05
3.08196e-05
3.24892e-05
3.24222e-05
3.24722e-05
3.28544e-05
2.90701e-05
3.23486e-05
3.24963e-05
3.38094e-05
3.3354e-05
3.39264e-05
3.31026e-05
3.36723e-05
3.33195e-05
3.1767e-05
2.95223e-05
3.38904e-05
3.33567e-05
3.24095e-05
3.19095e-05
3.21843e-05
3.23493e-05
3.29899e-05
3.24555e-05
3.00498e-05
2.36468e-05
3.3661e-05
3.25257e-05
3.32267e-05
3.43497e-05
3.49351e-05
3.61815e-05
3.3966e-05
3.3786e-05
3.37023e-05
2.93285e-05
3.31915e-05
3.37276e-05
3.35445e-05
3.29585e-05
3.32695e-05
3.16976e-05
3.35062e-05
3.56028e-05
3.09725e-05
2.62119e-05
3.35313e-05
3.40173e-05
3.32022e-05
3.42218e-05
3.29145e-05
3.42858e-05
3.40614e-05
3.33213e-05
3.08306e-05
2.6078e-05
3.35571e-05
3.41508e-05
3.58392e-05
3.46531e-05
3.5536e-05
3.5232e-05
3.61258e-05
3.61384e-05
3.30762e-05
2.96538e-05
3.34481e-05
3.23112e-05
3.09688e-05
3.07911e-05
3.09384e-05
3.25653e-05
3.232e-05
2.99706e-05
3.17667e-05
2.77213e-05
3.39571e-05
3.46273e-05
3.37642e-05
3.27782e-05
3.20955e-05
3.17756e-05
3.21353e-05
3.17985e-05
2.94296e-05
2.66054e-05
3.33897e-05
3.4714e-05
3.59285e-05
3.76543e-05
3.70511e-05
3.6895e-05
3.64039e-05
3.39785e-05
3.27778e-05
2.99524e-05
3.32024e-05
3.33299e-05
3.26137e-05
3.25935e-05
3.24094e-05
3.21886e-05
3.11975e-05
3.30293e-05
3.24313e-05
2.84412e-05
3.4094e-05
3.53864e-05
3.48147e-05
3.38284e-05
3.457e-05
3.32716e-05
3.09835e-05
3.07273e-05
2.78634e-05
2.5391e-05
3.25233e-05
3.15354e-05
3.23509e-05
3.30092e-05
3.24531e-05
3.19429e-05
3.18943e-05
3.19883e-05
3.25025e-05
2.83229e-05
3.25946e-05
3.21844e-05
3.27945e-05
3.24303e-05
3.29372e-05
3.42706e-05
3.30813e-05
3.50317e-05
3.36518e-05
2.74452e-05
3.34965e-05
3.39521e-05
3.37313e-05
3.37358e-05
3.50368e-05
3.49331e-05
3.4216e-05
3.46024e-05
3.43822e-05
2.72681e-05
3.27528e-05
3.33666e-05
3.40107e-05
3.2701e-05
3.29142e-05
3.15453e-05
3.05713e-05
3.12296e-05
2.99553e-05
2.92879e-05
3.37544e-05
3.53142e-05
3.5052e-05
3.5733e-05
3.49304e-05
3.4141e-05
3.29594e-05
3.19618e-05
3.12275e-05
2.92585e-05
3.36906e-05
3.2824e-05
3.2268e-05
3.24255e-05
3.37312e-05
3.25184e-05
3.28028e-05
3.40939e-05
3.26687e-05
2.75195e-05
3.25232e-05
3.23163e-05
3.20669e-05
3.17445e-05
3.20377e-05
3.29492e-05
3.39399e-05
3.20028e-05
3.10053e-05
2.66772e-05
3.33434e-05
3.32061e-05
3.2545e-05
3.27405e-05
3.30281e-05
3.27827e-05
3.26872e-05
3.25178e-05
3.04948e-05
2.77077e-05
3.43207e-05
3.42225e-05
3.55042e-05
3.53575e-05
3.58189e-05
3.64395e-05
3.59369e-05
3.38018e-05
3.43822e-05
3.12188e-05
3.34684e-05
3.37801e-05
3.35943e-05
3.35152e-05
3.32707e-05
3.27974e-05
3.28554e-05
3.28072e-05
3.21838e-05
2.97237e-05
3.40154e-05
3.2848e-05
3.36944e-05
3.49781e-05
3.38069e-05
3.43365e-05
3.49042e-05
3.40947e-05
3.00131e-05
2.69977e-05
3.35963e-05
3.31442e-05
3.23566e-05
3.25218e-05
3.25968e-05
3.17881e-05
3.20616e-05
3.04498e-05
3.18666e-05
2.88274e-05
3.3709e-05
3.31807e-05
3.35696e-05
3.41974e-05
3.46573e-05
3.48868e-05
3.44806e-05
3.24131e-05
3.08108e-05
3.08196e-05
3.30133e-05
3.31511e-05
3.27369e-05
3.2651e-05
3.26672e-05
3.22845e-05
3.26978e-05
3.0626e-05
2.68559e-05
2.33984e-05
3.4165e-05
3.45843e-05
3.47513e-05
3.41095e-05
3.40132e-05
3.56579e-05
3.37302e-05
3.22589e-05
3.27713e-05
2.62073e-05
3.29552e-05
3.30305e-05
3.32573e-05
3.39127e-05
3.40034e-05
3.26789e-05
3.31164e-05
3.28376e-05
3.30236e-05
2.92437e-05
3.40724e-05
3.41652e-05
3.31307e-05
3.13828e-05
3.16092e-05
3.31713e-05
3.48081e-05
3.25725e-05
3.03168e-05
2.98092e-05
3.2706e-05
3.33537e-05
3.18353e-05
3.24326e-05
3.31611e-05
3.31288e-05
3.20198e-05
2.83652e-05
2.86489e-05
2.53263e-05
3.38197e-05
3.10491e-05
3.22501e-05
3.27197e-05
3.39273e-05
3.47504e-05
3.43308e-05
3.42581e-05
3.12944e-05
3.02041e-05
3.34187e-05
3.33303e-05
3.15193e-05
3.25267e-05
3.07347e-05
3.04843e-05
3.20615e-05
3.16083e-05
3.24187e-05
2.80435e-05
3.42041e-05
3.4323e-05
3.38194e-05
3.11146e-05
3.1282e-05
3.1816e-05
3.38248e-05
3.25375e-05
3.15844e-05
3.04653e-05
3.29918e-05
3.16097e-05
3.14122e-05
3.34182e-05
3.28266e-05
3.18529e-05
3.16636e-05
2.86766e-05
2.77176e-05
2.64806e-05
3.37537e-05
3.41068e-05
3.50233e-05
3.41075e-05
3.24536e-05
3.1431e-05
3.07697e-05
3.24035e-05
3.0094e-05
2.85376e-05
3.29695e-05
3.33875e-05
3.35513e-05
3.39472e-05
3.44519e-05
3.51106e-05
3.36383e-05
3.12976e-05
3.19643e-05
2.77598e-05
3.38004e-05
3.47345e-05
3.30657e-05
3.36751e-05
3.42777e-05
3.2819e-05
3.17042e-05
3.26593e-05
3.04768e-05
2.99445e-05
3.47259e-05
3.38747e-05
3.38498e-05
3.43133e-05
3.46202e-05
3.28527e-05
3.17258e-05
3.23816e-05
2.98728e-05
2.78809e-05
3.30284e-05
3.2608e-05
3.15598e-05
3.09217e-05
3.12961e-05
3.16783e-05
3.03916e-05
2.98765e-05
2.93168e-05
2.52374e-05
3.34117e-05
3.46246e-05
3.48533e-05
3.46889e-05
3.36137e-05
3.1786e-05
3.21448e-05
3.08022e-05
3.0785e-05
2.70868e-05
3.26935e-05
3.37785e-05
3.38821e-05
3.27013e-05
3.26201e-05
3.26832e-05
3.13964e-05
2.97055e-05
2.98471e-05
2.77642e-05
3.18398e-05
3.13711e-05
3.22155e-05
3.16509e-05
3.31392e-05
3.37949e-05
3.46391e-05
3.52162e-05
3.20487e-05
2.83099e-05
3.3275e-05
3.31931e-05
3.22893e-05
3.43484e-05
3.42091e-05
3.47451e-05
3.25669e-05
3.06316e-05
2.87223e-05
2.91579e-05
3.33335e-05
3.46521e-05
3.41427e-05
3.40619e-05
3.2994e-05
3.29447e-05
3.36692e-05
3.40027e-05
3.43707e-05
3.15185e-05
3.24822e-05
3.27093e-05
3.36465e-05
3.45448e-05
3.43406e-05
3.65202e-05
3.25532e-05
3.35876e-05
3.07818e-05
2.79731e-05
3.33856e-05
3.35364e-05
3.46103e-05
3.32008e-05
3.34966e-05
3.38225e-05
3.41164e-05
3.21658e-05
3.12483e-05
2.69239e-05
3.38253e-05
3.18461e-05
3.11854e-05
3.26074e-05
3.30321e-05
3.22091e-05
3.131e-05
2.96886e-05
3.01064e-05
2.95638e-05
3.36229e-05
3.25334e-05
3.09747e-05
3.1519e-05
3.12909e-05
3.12678e-05
3.09923e-05
3.15302e-05
2.89125e-05
2.5414e-05
3.32499e-05
3.35767e-05
3.27722e-05
3.27242e-05
3.27335e-05
3.1774e-05
3.21847e-05
3.02127e-05
2.91915e-05
2.97467e-05
3.38691e-05
3.44594e-05
3.41081e-05
3.39293e-05
3.36388e-05
3.47116e-05
3.27198e-05
2.92047e-05
2.98121e-05
2.75733e-05
3.35268e-05
3.31225e-05
3.50447e-05
3.44314e-05
3.38799e-05
3.41501e-05
3.56146e-05
3.3027e-05
3.32936e-05
2.95239e-05
3.34835e-05
3.22917e-05
3.07692e-05
3.18822e-05
3.37486e-05
3.36545e-05
3.47584e-05
3.54929e-05
3.25187e-05
2.77602e-05
3.44467e-05
3.30467e-05
3.44827e-05
3.34808e-05
3.28301e-05
3.31448e-05
3.36953e-05
3.43054e-05
3.26907e-05
2.89193e-05
3.46064e-05
3.42504e-05
3.4295e-05
3.36784e-05
3.19087e-05
3.14901e-05
3.0387e-05
2.91284e-05
2.68993e-05
2.52768e-05
3.3386e-05
3.33791e-05
3.44357e-05
3.45577e-05
3.35015e-05
3.4342e-05
3.44035e-05
3.44539e-05
3.22304e-05
2.84166e-05
3.36076e-05
3.42754e-05
3.40954e-05
3.42306e-05
3.38094e-05
3.25205e-05
3.28491e-05
3.25261e-05
3.06778e-05
2.68506e-05
3.40856e-05
3.44499e-05
3.34057e-05
3.49111e-05
3.47645e-05
3.49834e-05
3.43589e-05
3.34358e-05
3.17557e-05
3.01513e-05
3.26026e-05
3.42593e-05
3.47715e-05
3.3897e-05
3.35756e-05
3.30399e-05
3.28169e-05
3.09321e-05
2.9162e-05
2.83795e-05
3.26247e-05
3.22976e-05
3.28574e-05
3.36904e-05
3.48061e-05
3.51779e-05
3.37824e-05
3.40728e-05
3.34793e-05
2.94325e-05
3.48033e-05
3.47613e-05
3.46314e-05
3.3837e-05
3.27589e-05
3.30842e-05
3.20986e-05
3.22442e-05
3.08808e-05
2.90999e-05
3.30022e-05
3.33028e-05
3.20208e-05
3.30526e-05
3.25743e-05
3.19622e-05
3.26705e-05
3.34203e-05
3.52414e-05
3.11266e-05
3.32305e-05
3.29282e-05
3.33747e-05
3.369e-05
3.31545e-05
3.16353e-05
3.13561e-05
3.08472e-05
2.89781e-05
2.43683e-05
3.25759e-05
3.27727e-05
3.44968e-05
3.45741e-05
3.3153e-05
3.34933e-05
3.45053e-05
3.19756e-05
2.88355e-05
2.50582e-05
3.31392e-05
3.30804e-05
3.29422e-05
3.35864e-05
3.35235e-05
3.37361e-05
3.4803e-05
3.36476e-05
3.04926e-05
2.78475e-05
3.44851e-05
3.28506e-05
3.19126e-05
3.24149e-05
3.2046e-05
3.17665e-05
3.18055e-05
3.30296e-05
3.3123e-05
3.04965e-05
3.33746e-05
3.28935e-05
3.38734e-05
3.32912e-05
3.1951e-05
2.98777e-05
3.04084e-05
3.1065e-05
3.19469e-05
3.13116e-05
3.42521e-05
3.55119e-05
3.4821e-05
3.3299e-05
3.21498e-05
3.41094e-05
3.26977e-05
3.05125e-05
3.0777e-05
2.99238e-05
3.35811e-05
3.3206e-05
3.37964e-05
3.42645e-05
3.43691e-05
3.40839e-05
3.23312e-05
3.04111e-05
3.11031e-05
2.87495e-05
3.31542e-05
3.43886e-05
3.55393e-05
3.59556e-05
3.55657e-05
3.50068e-05
3.34937e-05
3.30609e-05
3.113e-05
2.93369e-05
3.29941e-05
3.22148e-05
3.29866e-05
3.40154e-05
3.40901e-05
3.39471e-05
3.24938e-05
3.16683e-05
2.86036e-05
3.01494e-05
3.30824e-05
3.26967e-05
3.17662e-05
3.10478e-05
3.29713e-05
3.15418e-05
2.95642e-05
2.96785e-05
2.87011e-05
2.83398e-05
3.29051e-05
3.21259e-05
3.29986e-05
3.46134e-05
3.28107e-05
3.31907e-05
3.31576e-05
3.39964e-05
3.31603e-05
3.10701e-05
3.42562e-05
3.42094e-05
3.34675e-05
3.3615e-05
3.39903e-05
3.54057e-05
3.40347e-05
3.33843e-05
3.29934e-05
3.29318e-05
3.26509e-05
3.25153e-05
3.20195e-05
3.15448e-05
3.26728e-05
3.25871e-05
3.16783e-05
3.02346e-05
2.98278e-05
2.85622e-05
3.59899e-05
3.65656e-05
3.49026e-05
3.46709e-05
3.22593e-05
3.2558e-05
3.33159e-05
3.3759e-05
3.05876e-05
2.86929e-05
3.37671e-05
3.41293e-05
3.48678e-05
3.37759e-05
3.38424e-05
3.39214e-05
3.41026e-05
3.36328e-05
3.06623e-05
2.89731e-05
3.3604e-05
3.36496e-05
3.38126e-05
3.40418e-05
3.42247e-05
3.34291e-05
3.26173e-05
3.0675e-05
3.04931e-05
2.90289e-05
3.37182e-05
3.34518e-05
3.18904e-05
3.17753e-05
3.35944e-05
3.33436e-05
3.33072e-05
3.3343e-05
3.15773e-05
3.04821e-05
3.29008e-05
3.28515e-05
3.49107e-05
3.44427e-05
3.26922e-05
3.27269e-05
3.30988e-05
3.09219e-05
2.97709e-05
3.10507e-05
3.25035e-05
3.26751e-05
3.38456e-05
3.23474e-05
3.21752e-05
3.17124e-05
3.19314e-05
3.24015e-05
3.20225e-05
3.30077e-05
3.35147e-05
3.25055e-05
3.22874e-05
3.33023e-05
3.39905e-05
3.27661e-05
3.19465e-05
3.18574e-05
3.04108e-05
3.233e-05
3.24571e-05
3.24693e-05
3.24216e-05
3.28822e-05
3.42516e-05
3.3204e-05
3.28166e-05
3.45275e-05
3.34075e-05
2.94003e-05
3.42525e-05
3.40929e-05
3.37858e-05
3.28904e-05
3.2244e-05
3.25503e-05
3.16301e-05
3.12185e-05
3.06395e-05
2.74081e-05
3.46934e-05
3.49204e-05
3.52647e-05
3.47174e-05
3.35045e-05
3.38521e-05
3.20427e-05
3.02349e-05
2.91201e-05
2.82448e-05
3.30765e-05
3.2838e-05
3.42321e-05
3.60397e-05
3.52195e-05
3.37587e-05
3.29965e-05
3.29235e-05
3.26703e-05
3.20763e-05
3.27017e-05
3.21692e-05
3.24866e-05
3.23862e-05
3.3968e-05
3.53268e-05
3.32849e-05
3.29133e-05
3.14248e-05
2.98318e-05
3.34647e-05
3.40081e-05
3.44058e-05
3.3896e-05
3.19382e-05
3.24097e-05
3.21558e-05
3.28637e-05
3.01129e-05
2.89161e-05
3.37273e-05
3.46896e-05
3.68679e-05
3.61324e-05
3.69575e-05
3.69423e-05
3.48031e-05
3.4472e-05
3.13399e-05
3.37596e-05
3.31256e-05
3.40569e-05
3.2631e-05
3.28513e-05
3.33246e-05
3.3386e-05
3.38765e-05
3.50356e-05
3.14604e-05
3.05796e-05
3.37214e-05
3.32258e-05
3.43112e-05
3.40475e-05
3.41522e-05
3.36321e-05
3.40304e-05
3.21335e-05
2.99401e-05
2.91396e-05
3.32844e-05
3.36729e-05
3.33964e-05
3.31707e-05
3.47686e-05
3.48842e-05
3.37115e-05
3.35392e-05
3.2044e-05
3.00723e-05
3.20118e-05
3.15826e-05
3.30517e-05
3.44385e-05
3.46273e-05
3.40684e-05
3.28404e-05
3.38851e-05
3.28392e-05
3.12292e-05
3.42559e-05
3.38669e-05
3.43947e-05
3.2937e-05
3.29599e-05
3.48644e-05
3.51597e-05
3.27312e-05
3.20568e-05
3.14617e-05
3.2147e-05
3.11865e-05
3.21362e-05
3.23639e-05
3.38897e-05
3.38248e-05
3.626e-05
3.52135e-05
3.4414e-05
3.37453e-05
3.43804e-05
3.54003e-05
3.42705e-05
3.40802e-05
3.30131e-05
3.2289e-05
3.29525e-05
3.38857e-05
3.2773e-05
3.33466e-05
3.38739e-05
3.4836e-05
3.53606e-05
3.38056e-05
3.35882e-05
3.35226e-05
3.35362e-05
3.25662e-05
3.32176e-05
3.30809e-05
3.291e-05
3.26415e-05
3.4626e-05
3.38075e-05
3.48001e-05
3.53671e-05
3.38377e-05
3.31349e-05
3.27866e-05
3.17811e-05
3.36197e-05
3.29579e-05
3.27023e-05
3.36801e-05
3.37481e-05
3.45935e-05
3.24101e-05
2.92654e-05
2.94877e-05
2.59548e-05
3.39479e-05
3.54777e-05
3.4977e-05
3.47162e-05
3.49071e-05
3.38417e-05
3.22321e-05
3.06635e-05
3.02577e-05
2.83967e-05
3.39408e-05
3.48427e-05
3.43534e-05
3.36269e-05
3.26853e-05
3.26992e-05
3.48994e-05
3.16478e-05
3.0487e-05
3.09545e-05
3.23038e-05
3.16902e-05
3.14423e-05
3.25925e-05
3.42099e-05
3.34961e-05
3.1909e-05
2.88155e-05
3.06382e-05
2.77953e-05
3.37914e-05
3.42154e-05
3.22038e-05
3.23167e-05
3.23152e-05
3.34071e-05
3.45082e-05
3.21972e-05
3.06541e-05
2.79743e-05
3.40892e-05
3.57701e-05
3.42001e-05
3.37453e-05
3.42077e-05
3.34903e-05
3.15868e-05
3.31358e-05
3.3086e-05
3.26136e-05
3.24586e-05
3.19441e-05
3.27228e-05
3.15053e-05
3.18119e-05
3.29252e-05
3.13372e-05
3.15677e-05
3.21358e-05
3.1561e-05
3.28997e-05
3.30637e-05
3.37386e-05
3.24756e-05
3.20764e-05
3.1624e-05
3.14975e-05
3.3198e-05
3.10377e-05
3.13574e-05
3.34273e-05
3.32665e-05
3.27427e-05
3.19024e-05
3.10574e-05
3.23318e-05
3.3863e-05
3.31324e-05
3.03943e-05
3.10857e-05
3.49758e-05
3.498e-05
3.35596e-05
3.22886e-05
3.04094e-05
3.09741e-05
3.10073e-05
3.01729e-05
3.21031e-05
3.02407e-05
3.52556e-05
3.74446e-05
3.48137e-05
3.38252e-05
3.35241e-05
3.31585e-05
3.12811e-05
3.10794e-05
3.26403e-05
3.08915e-05
3.25245e-05
3.24107e-05
3.35398e-05
3.39816e-05
3.39812e-05
3.26989e-05
3.47408e-05
3.35291e-05
3.64965e-05
3.51635e-05
3.2399e-05
3.33627e-05
3.27806e-05
3.25481e-05
3.27785e-05
3.43362e-05
3.36986e-05
3.37372e-05
3.10284e-05
3.17341e-05
3.31621e-05
3.28546e-05
3.26134e-05
3.25661e-05
3.10117e-05
3.22657e-05
3.24983e-05
3.1438e-05
3.10834e-05
2.99781e-05
3.2161e-05
3.13272e-05
3.09939e-05
3.34937e-05
3.49758e-05
3.60162e-05
3.73423e-05
3.46749e-05
3.73425e-05
3.74331e-05
3.30337e-05
3.20536e-05
3.14812e-05
3.28729e-05
3.28856e-05
3.23354e-05
3.33657e-05
3.17567e-05
3.07257e-05
3.31257e-05
3.22916e-05
3.33706e-05
3.45192e-05
3.29653e-05
3.12557e-05
3.2501e-05
3.25609e-05
3.23927e-05
3.0212e-05
2.77905e-05
3.28921e-05
3.47019e-05
3.30731e-05
3.31799e-05
3.36208e-05
3.24384e-05
3.12052e-05
3.13862e-05
3.22559e-05
3.12906e-05
3.31466e-05
3.19567e-05
3.18191e-05
3.12727e-05
3.01797e-05
3.00605e-05
2.90825e-05
2.94736e-05
2.96955e-05
3.18477e-05
3.42324e-05
3.43174e-05
3.45379e-05
3.48711e-05
3.45865e-05
3.37319e-05
3.33977e-05
3.17779e-05
2.81881e-05
3.13784e-05
3.22085e-05
3.26462e-05
3.41797e-05
3.46611e-05
3.30314e-05
3.45823e-05
3.21046e-05
3.45392e-05
3.39752e-05
3.28648e-05
3.46153e-05
3.45476e-05
3.35725e-05
3.32542e-05
3.28671e-05
3.18261e-05
3.16939e-05
3.23262e-05
3.36382e-05
3.00999e-05
3.39302e-05
3.37671e-05
3.42268e-05
3.47346e-05
3.58539e-05
3.41835e-05
3.44252e-05
3.3237e-05
3.21776e-05
2.66346e-05
3.29019e-05
3.4614e-05
3.39719e-05
3.19229e-05
3.08672e-05
3.22229e-05
3.19064e-05
3.03796e-05
3.00151e-05
3.1762e-05
3.30187e-05
3.34821e-05
3.24553e-05
3.26433e-05
3.25438e-05
3.22365e-05
3.22617e-05
3.30811e-05
3.09663e-05
2.96087e-05
3.46457e-05
3.32654e-05
3.34782e-05
3.32045e-05
3.30361e-05
3.32497e-05
3.3041e-05
2.92697e-05
2.9395e-05
2.83558e-05
3.34577e-05
3.428e-05
3.48349e-05
3.38142e-05
3.20935e-05
3.14408e-05
3.24999e-05
3.1481e-05
3.31566e-05
2.87081e-05
3.32794e-05
3.35475e-05
3.27212e-05
3.26376e-05
3.43321e-05
3.51031e-05
3.50113e-05
3.07392e-05
3.15953e-05
3.35476e-05
3.32971e-05
3.30082e-05
3.18994e-05
3.22046e-05
3.22733e-05
3.4067e-05
3.25249e-05
3.44484e-05
3.22661e-05
3.12384e-05
3.28709e-05
3.35191e-05
3.40805e-05
3.53936e-05
3.59047e-05
3.6226e-05
3.62523e-05
3.27972e-05
3.36067e-05
3.37167e-05
3.39211e-05
3.44259e-05
3.45608e-05
3.28714e-05
3.37598e-05
3.22784e-05
3.14954e-05
3.13564e-05
3.2173e-05
3.27737e-05
3.4066e-05
3.57281e-05
3.46544e-05
3.34811e-05
3.29512e-05
3.17566e-05
3.24173e-05
3.35772e-05
3.20994e-05
3.21375e-05
3.45233e-05
3.53444e-05
3.38864e-05
3.23243e-05
3.42146e-05
3.56222e-05
3.42703e-05
3.17288e-05
3.2515e-05
3.23338e-05
3.20415e-05
3.12937e-05
3.36317e-05
3.5191e-05
3.55534e-05
3.60935e-05
3.6675e-05
3.40187e-05
3.11592e-05
3.13493e-05
3.21872e-05
3.26964e-05
3.12093e-05
3.08037e-05
3.31273e-05
3.24178e-05
3.26175e-05
3.27005e-05
3.15945e-05
3.20451e-05
3.35732e-05
3.31283e-05
3.28058e-05
3.33562e-05
3.07439e-05
3.02019e-05
3.03371e-05
3.26589e-05
3.27948e-05
3.24281e-05
3.34406e-05
3.43403e-05
3.38653e-05
3.34501e-05
3.20959e-05
3.29908e-05
2.97151e-05
3.13599e-05
3.04354e-05
2.87798e-05
3.45188e-05
3.29677e-05
3.29362e-05
3.31402e-05
3.33587e-05
3.19515e-05
3.1889e-05
3.29368e-05
3.29798e-05
3.15444e-05
3.3515e-05
3.54366e-05
3.47114e-05
3.23934e-05
3.31461e-05
3.34616e-05
3.31584e-05
3.20775e-05
3.23446e-05
3.01102e-05
3.40257e-05
3.31033e-05
3.34449e-05
3.38213e-05
3.52712e-05
3.62437e-05
3.52949e-05
3.37139e-05
3.08825e-05
2.91491e-05
3.36524e-05
3.15602e-05
3.33632e-05
3.48747e-05
3.49403e-05
3.15349e-05
3.29217e-05
3.44755e-05
3.1544e-05
3.05359e-05
3.28907e-05
3.26489e-05
3.33885e-05
3.40481e-05
3.46405e-05
3.18043e-05
3.37268e-05
3.17475e-05
3.47791e-05
3.45619e-05
3.42757e-05
3.4997e-05
3.43903e-05
3.39463e-05
3.3576e-05
3.29935e-05
3.3565e-05
3.48463e-05
3.63306e-05
3.50876e-05
3.37681e-05
3.41544e-05
3.4293e-05
3.41363e-05
3.40305e-05
3.45875e-05
3.50918e-05
3.5493e-05
3.32929e-05
3.43284e-05
3.28811e-05
3.20123e-05
3.26462e-05
3.23308e-05
3.19609e-05
3.3071e-05
3.21387e-05
3.25376e-05
3.37036e-05
3.17104e-05
3.20334e-05
3.11616e-05
3.29771e-05
3.21625e-05
3.35837e-05
3.2378e-05
3.43867e-05
3.40485e-05
3.42153e-05
3.35917e-05
3.38426e-05
3.40791e-05
3.40442e-05
3.52418e-05
3.54286e-05
3.5109e-05
3.46393e-05
3.46543e-05
3.51711e-05
3.22623e-05
3.43662e-05
3.2195e-05
3.10331e-05
3.17804e-05
3.26137e-05
3.40814e-05
3.31231e-05
3.09888e-05
3.19818e-05
3.11369e-05
3.32956e-05
3.24903e-05
3.43531e-05
3.57649e-05
3.41796e-05
3.31113e-05
3.14971e-05
3.1671e-05
3.1546e-05
3.2451e-05
3.41935e-05
3.40172e-05
3.2659e-05
3.21551e-05
3.22701e-05
3.02329e-05
3.12341e-05
3.07981e-05
3.40758e-05
3.22263e-05
3.30312e-05
3.37824e-05
3.51603e-05
3.56143e-05
3.64338e-05
3.60543e-05
3.44905e-05
3.60168e-05
3.54493e-05
3.39321e-05
3.4443e-05
3.49758e-05
3.56514e-05
3.48138e-05
3.26198e-05
3.19496e-05
3.2184e-05
3.22718e-05
3.12333e-05
3.13533e-05
3.29039e-05
3.396e-05
3.51123e-05
3.53987e-05
3.44504e-05
3.16651e-05
3.45286e-05
3.23914e-05
3.23524e-05
3.20553e-05
3.36607e-05
3.45818e-05
3.38378e-05
3.24909e-05
3.25622e-05
3.40029e-05
3.48631e-05
3.27575e-05
3.18789e-05
3.34631e-05
3.37097e-05
3.26675e-05
3.34796e-05
3.34412e-05
3.51918e-05
3.5559e-05
3.26493e-05
3.2011e-05
3.28415e-05
3.39262e-05
3.22779e-05
3.23149e-05
3.12552e-05
3.14006e-05
3.15119e-05
3.05058e-05
3.30206e-05
3.3929e-05
3.21954e-05
3.27301e-05
3.4045e-05
3.4931e-05
3.40261e-05
3.38422e-05
3.25738e-05
3.23791e-05
3.23314e-05
3.25517e-05
3.22715e-05
3.20527e-05
3.32977e-05
3.41942e-05
3.50955e-05
3.5343e-05
3.36563e-05
3.35739e-05
3.3916e-05
3.31595e-05
3.05521e-05
3.05273e-05
3.36013e-05
3.48674e-05
3.54904e-05
3.63732e-05
3.65649e-05
3.72853e-05
3.55491e-05
3.51586e-05
3.38546e-05
3.35884e-05
3.39643e-05
3.24506e-05
3.12928e-05
3.14779e-05
3.34234e-05
3.37358e-05
3.44004e-05
3.08285e-05
3.01334e-05
3.05999e-05
3.44771e-05
3.37047e-05
3.42541e-05
3.42694e-05
3.42497e-05
3.36346e-05
3.31934e-05
3.37705e-05
3.24249e-05
3.229e-05
3.27359e-05
3.41881e-05
3.46408e-05
3.35884e-05
3.36539e-05
3.39442e-05
3.36437e-05
3.17035e-05
3.32922e-05
3.23465e-05
3.50105e-05
3.44099e-05
3.3947e-05
3.46639e-05
3.53508e-05
3.59563e-05
3.51279e-05
3.375e-05
3.44138e-05
3.23726e-05
3.25257e-05
3.30855e-05
3.46552e-05
3.49422e-05
3.60071e-05
3.52157e-05
3.47598e-05
3.5604e-05
3.60671e-05
3.56489e-05
3.37601e-05
3.40153e-05
3.42736e-05
3.47266e-05
3.46434e-05
3.51849e-05
3.4646e-05
3.31967e-05
3.51179e-05
3.23042e-05
3.38395e-05
3.3812e-05
3.33986e-05
3.2639e-05
3.23591e-05
3.37963e-05
3.40284e-05
3.6255e-05
3.48965e-05
3.43231e-05
3.36144e-05
3.3604e-05
3.45493e-05
3.53323e-05
3.43326e-05
3.2819e-05
3.12273e-05
3.09712e-05
3.1412e-05
3.08187e-05
3.25555e-05
3.22919e-05
3.22949e-05
3.34707e-05
3.27886e-05
3.36431e-05
3.36217e-05
3.15221e-05
3.17382e-05
3.21762e-05
3.30303e-05
3.27482e-05
3.43402e-05
3.42822e-05
3.45546e-05
3.32367e-05
3.18961e-05
3.21182e-05
3.08754e-05
3.24152e-05
3.40334e-05
3.63464e-05
3.56729e-05
3.40319e-05
3.26635e-05
3.29056e-05
3.24594e-05
3.14877e-05
3.21585e-05
3.14723e-05
3.36191e-05
3.38852e-05
3.3855e-05
3.35652e-05
3.29597e-05
3.15091e-05
3.06619e-05
3.1139e-05
3.20647e-05
3.07143e-05
3.27561e-05
3.21444e-05
3.26333e-05
3.3479e-05
3.39219e-05
3.39149e-05
3.43954e-05
3.25329e-05
3.15177e-05
3.15453e-05
3.35234e-05
3.24768e-05
3.14622e-05
3.00091e-05
3.02238e-05
3.06004e-05
3.17364e-05
3.09104e-05
2.85295e-05
2.60801e-05
3.24889e-05
3.3375e-05
3.49996e-05
3.48208e-05
3.46643e-05
3.51669e-05
3.31525e-05
3.21927e-05
3.13322e-05
2.9225e-05
3.1981e-05
3.17787e-05
3.19676e-05
3.21436e-05
3.22376e-05
3.28318e-05
3.08235e-05
3.34743e-05
3.01151e-05
3.0713e-05
3.3234e-05
3.2024e-05
3.39421e-05
3.4825e-05
3.61922e-05
3.61816e-05
3.39769e-05
3.22537e-05
3.07576e-05
3.24526e-05
3.39483e-05
3.42919e-05
3.30281e-05
3.23606e-05
3.18102e-05
3.21468e-05
3.25919e-05
3.20869e-05
3.31305e-05
3.15505e-05
3.2776e-05
3.26723e-05
3.34042e-05
3.28577e-05
3.31387e-05
3.3468e-05
3.16735e-05
3.18342e-05
3.26198e-05
3.16305e-05
3.39405e-05
3.36891e-05
3.28967e-05
3.34038e-05
3.38861e-05
3.36207e-05
3.35143e-05
3.25656e-05
3.28403e-05
3.27711e-05
3.32196e-05
3.35012e-05
3.41491e-05
3.3338e-05
3.29436e-05
3.23202e-05
3.1677e-05
3.2522e-05
3.07791e-05
3.35882e-05
3.3699e-05
3.44979e-05
3.42927e-05
3.4893e-05
3.38594e-05
3.35224e-05
3.25345e-05
3.11756e-05
3.17624e-05
3.02329e-05
3.34268e-05
3.25555e-05
3.23683e-05
3.26732e-05
3.30488e-05
3.21853e-05
3.22306e-05
3.13609e-05
3.04708e-05
3.046e-05
3.37873e-05
3.41865e-05
3.30264e-05
3.28508e-05
3.11029e-05
3.15477e-05
3.32409e-05
3.38274e-05
3.29536e-05
3.16153e-05
3.23152e-05
3.31231e-05
3.40278e-05
3.38587e-05
3.4942e-05
3.35229e-05
3.24193e-05
3.2869e-05
3.26039e-05
3.09788e-05
3.50423e-05
3.56489e-05
3.48552e-05
3.30434e-05
3.32708e-05
3.57444e-05
3.36179e-05
3.26082e-05
3.20763e-05
3.22904e-05
3.26916e-05
3.18725e-05
3.21611e-05
3.12871e-05
3.09511e-05
3.32837e-05
3.18503e-05
3.38084e-05
3.20445e-05
3.12603e-05
3.40394e-05
3.50264e-05
3.36553e-05
3.37769e-05
3.26073e-05
3.24497e-05
3.12124e-05
3.06498e-05
3.02986e-05
2.93258e-05
3.35337e-05
3.17852e-05
3.20103e-05
3.24426e-05
3.29445e-05
3.40125e-05
3.32804e-05
3.26826e-05
3.1099e-05
3.00141e-05
3.2482e-05
3.17759e-05
3.2922e-05
3.24539e-05
3.34042e-05
3.38589e-05
3.11095e-05
3.19364e-05
3.34147e-05
3.20283e-05
3.43584e-05
3.35542e-05
3.33118e-05
3.4107e-05
3.32539e-05
3.3268e-05
3.37922e-05
3.53859e-05
3.38329e-05
3.10755e-05
3.34925e-05
3.39077e-05
3.50761e-05
3.67166e-05
3.46467e-05
3.26699e-05
3.33571e-05
3.25405e-05
3.457e-05
3.40002e-05
3.30223e-05
3.34918e-05
3.34547e-05
3.36399e-05
3.34252e-05
3.36686e-05
3.57681e-05
3.35636e-05
3.26396e-05
3.18236e-05
3.47497e-05
3.26987e-05
3.17412e-05
3.05583e-05
3.28298e-05
3.22489e-05
3.24639e-05
3.3378e-05
3.49568e-05
3.20151e-05
3.34589e-05
3.42143e-05
3.43514e-05
3.3525e-05
3.32395e-05
3.23432e-05
3.22038e-05
3.0172e-05
3.12883e-05
3.01239e-05
3.3587e-05
3.36591e-05
3.27766e-05
3.35223e-05
3.40366e-05
3.50798e-05
3.38027e-05
3.24199e-05
3.21605e-05
3.20018e-05
3.30086e-05
3.1003e-05
3.05266e-05
3.14422e-05
2.99759e-05
2.88486e-05
2.96669e-05
3.04534e-05
3.14163e-05
3.00744e-05
3.30776e-05
3.34467e-05
3.26985e-05
3.25762e-05
3.44769e-05
3.52384e-05
3.5098e-05
3.47079e-05
3.56112e-05
3.34694e-05
3.34638e-05
3.3594e-05
3.43302e-05
3.38225e-05
3.32336e-05
3.18956e-05
3.22178e-05
3.22099e-05
3.2979e-05
3.08303e-05
3.37519e-05
3.42697e-05
3.43826e-05
3.36865e-05
3.31848e-05
3.4167e-05
3.24296e-05
3.00412e-05
3.13332e-05
3.2744e-05
3.34569e-05
3.3566e-05
3.31372e-05
3.48353e-05
3.41248e-05
3.2612e-05
2.95236e-05
3.0829e-05
3.3e-05
3.16951e-05
3.47634e-05
3.33564e-05
3.40194e-05
3.38503e-05
3.36527e-05
3.34763e-05
3.32652e-05
3.4127e-05
3.08131e-05
3.065e-05
3.26806e-05
3.30134e-05
3.2947e-05
3.2523e-05
3.38227e-05
3.42665e-05
3.35806e-05
3.3819e-05
3.45442e-05
3.54821e-05
3.36932e-05
3.37274e-05
3.45225e-05
3.41356e-05
3.52204e-05
3.48016e-05
3.32586e-05
3.30364e-05
3.27903e-05
3.07768e-05
3.44443e-05
3.42069e-05
3.39565e-05
3.38894e-05
3.19936e-05
3.12813e-05
3.16018e-05
3.1483e-05
3.3699e-05
3.26142e-05
3.25392e-05
3.18965e-05
3.12102e-05
3.18189e-05
3.34424e-05
3.31079e-05
3.30578e-05
2.92507e-05
2.92375e-05
3.00604e-05
3.4074e-05
3.37237e-05
3.29478e-05
3.28732e-05
3.32709e-05
3.44657e-05
3.30141e-05
3.36131e-05
3.4895e-05
3.37322e-05
3.43858e-05
3.20058e-05
3.13059e-05
3.25118e-05
3.34216e-05
3.34656e-05
3.37604e-05
3.28896e-05
3.26149e-05
3.36982e-05
3.31602e-05
3.40989e-05
3.27414e-05
3.31517e-05
3.19797e-05
3.25594e-05
3.1554e-05
3.04714e-05
3.05562e-05
3.01028e-05
3.26464e-05
3.21928e-05
3.25504e-05
3.32164e-05
3.3222e-05
3.19933e-05
3.13262e-05
3.07583e-05
3.03181e-05
2.48843e-05
3.4243e-05
3.43044e-05
3.41275e-05
3.44932e-05
3.28391e-05
3.22523e-05
3.22895e-05
3.23529e-05
2.88894e-05
2.5603e-05
3.41603e-05
3.44831e-05
3.4441e-05
3.43592e-05
3.28701e-05
3.45206e-05
3.56332e-05
3.32685e-05
3.22326e-05
3.17181e-05
3.33029e-05
3.36174e-05
3.20807e-05
3.11364e-05
3.15825e-05
3.12696e-05
3.32976e-05
3.20959e-05
3.123e-05
3.01906e-05
3.37628e-05
3.26106e-05
3.29737e-05
3.38848e-05
3.16741e-05
2.98617e-05
3.04082e-05
3.07019e-05
2.89917e-05
3.06158e-05
3.26765e-05
3.16922e-05
3.16178e-05
3.15437e-05
3.20465e-05
3.20706e-05
3.09564e-05
3.03011e-05
2.90026e-05
3.05976e-05
3.26504e-05
3.2532e-05
3.29035e-05
3.29158e-05
3.53303e-05
3.46833e-05
3.65317e-05
3.6466e-05
3.38054e-05
3.3477e-05
3.32613e-05
3.20198e-05
3.24451e-05
3.26325e-05
3.30528e-05
3.51469e-05
3.44712e-05
3.25102e-05
3.34448e-05
3.25663e-05
3.33332e-05
3.50812e-05
3.47707e-05
3.47024e-05
3.26726e-05
3.20223e-05
3.23502e-05
3.07284e-05
3.17947e-05
3.35081e-05
3.26132e-05
3.22764e-05
3.18716e-05
3.15232e-05
3.18674e-05
3.1435e-05
3.31759e-05
3.41902e-05
3.28195e-05
3.40436e-05
3.31664e-05
3.12843e-05
3.18123e-05
3.15908e-05
3.39807e-05
3.38148e-05
3.36557e-05
3.67493e-05
3.74996e-05
3.72599e-05
3.30007e-05
3.42795e-05
3.3617e-05
3.30966e-05
3.22583e-05
3.27885e-05
3.29648e-05
3.14939e-05
3.38143e-05
3.24886e-05
3.40459e-05
3.36659e-05
3.39652e-05
3.38601e-05
3.30592e-05
3.20105e-05
3.2077e-05
3.2637e-05
3.27923e-05
3.36547e-05
3.26635e-05
3.2788e-05
3.1817e-05
3.35552e-05
3.46625e-05
3.42525e-05
3.3731e-05
3.47533e-05
3.55396e-05
3.46519e-05
3.33087e-05
3.35584e-05
3.33843e-05
3.24836e-05
3.29434e-05
3.09986e-05
3.00191e-05
3.05147e-05
3.01567e-05
3.1448e-05
3.31733e-05
3.16999e-05
3.13631e-05
3.08625e-05
3.18157e-05
3.06539e-05
2.97004e-05
2.95739e-05
3.03607e-05
3.03178e-05
3.22731e-05
3.31504e-05
3.48033e-05
3.4473e-05
3.32041e-05
3.24013e-05
3.30473e-05
3.37037e-05
3.27179e-05
3.18616e-05
3.41655e-05
3.37193e-05
3.31691e-05
3.23059e-05
3.40903e-05
3.33544e-05
3.35868e-05
3.18635e-05
3.04226e-05
3.2947e-05
3.21783e-05
3.19583e-05
3.24041e-05
3.32019e-05
3.15557e-05
3.39072e-05
3.37734e-05
3.33836e-05
3.30922e-05
3.20183e-05
3.36741e-05
3.3438e-05
3.48652e-05
3.41937e-05
3.43071e-05
3.36767e-05
3.18385e-05
3.22313e-05
3.32981e-05
3.17321e-05
3.3996e-05
3.35722e-05
3.29742e-05
3.33479e-05
3.34653e-05
3.22631e-05
3.43949e-05
3.52874e-05
3.50628e-05
3.58025e-05
3.32646e-05
3.48276e-05
3.43911e-05
3.25994e-05
3.32528e-05
3.25466e-05
3.35439e-05
3.32991e-05
3.42843e-05
3.3813e-05
3.29754e-05
3.28389e-05
3.35126e-05
3.41953e-05
3.49722e-05
3.56709e-05
3.66285e-05
3.66258e-05
3.80705e-05
3.66398e-05
3.43291e-05
3.49166e-05
3.54527e-05
3.31301e-05
3.24971e-05
3.28298e-05
3.03042e-05
3.07855e-05
3.07749e-05
3.06018e-05
3.33599e-05
3.21493e-05
3.23217e-05
3.27844e-05
3.33338e-05
3.18244e-05
3.16268e-05
3.12592e-05
3.19624e-05
3.29842e-05
3.28115e-05
3.36402e-05
3.20671e-05
3.2187e-05
3.20167e-05
3.35315e-05
3.2132e-05
3.2464e-05
3.12954e-05
3.14283e-05
3.32986e-05
3.18547e-05
3.16575e-05
3.25222e-05
3.25487e-05
3.30276e-05
3.33159e-05
3.14244e-05
3.03177e-05
2.94745e-05
3.20327e-05
3.28463e-05
3.3786e-05
3.30539e-05
3.32068e-05
3.3006e-05
3.31321e-05
3.17767e-05
3.23791e-05
3.13774e-05
3.43627e-05
3.5003e-05
3.40346e-05
3.40811e-05
3.42885e-05
3.51948e-05
3.45787e-05
3.63531e-05
3.5216e-05