/*--------------------------------*- C++ -*----------------------------------*\
| =========                 |                                                 |
| \\      /  F ield         | OpenFOAM: The Open Source CFD Toolbox           |
|  \\    /   O peration     | Version:  2.4.0-MNF                             |
|   \\  /    A nd           | Web:      www.OpenFOAM.org                      |
|    \\/     M anipulation  |                                                 |
\*---------------------------------------------------------------------------*/
FoamFile
{
    version     2.0;
    format      ascii;
    class       volScalarField;
    location    "5e-05";
    object      p_Ar;
}
// * * * * * * * * * * * * * * * * * * * * * * * * * * * * * * * * * * * * * //

dimensions      [1 -1 -2 0 0 0 0];

internalField   nonuniform List<scalar> 
77760
(
0.430214
0.445108
0.497727
0.502721
0.493118
0.461249
0.490554
0.443922
0.728814
2.04427
0.467929
0.467776
0.412547
0.378395
0.386146
0.393729
0.407841
0.495362
0.712866
1.30701
0.421283
0.437697
0.425877
0.427336
0.425601
0.420738
0.442228
0.47831
0.89181
0.888116
0.392491
0.38652
0.399718
0.378452
0.372185
0.415323
0.422545
0.562095
0.650485
0.782535
0.42563
0.406729
0.388508
0.415768
0.436582
0.421438
0.434849
0.542935
0.613422
0.834779
0.392396
0.381101
0.383788
0.361816
0.360916
0.381756
0.481307
0.62335
0.671202
0.660219
0.391381
0.411828
0.411319
0.397801
0.397371
0.476907
0.4028
0.485735
0.485289
0.576957
0.426117
0.409603
0.398705
0.394905
0.376634
0.38442
0.389958
0.400067
0.431047
1.10657
0.41148
0.425837
0.440535
0.420983
0.406207
0.386705
0.387379
0.46453
0.432259
1.18284
0.409903
0.399941
0.386166
0.391948
0.395275
0.407081
0.385247
0.395696
0.544337
0.844354
0.398036
0.396191
0.415355
0.416752
0.406276
0.416364
0.419759
0.428357
0.487765
0.767714
0.417371
0.43072
0.420463
0.447435
0.477053
0.434334
0.441722
0.433795
0.443033
0.750889
0.437323
0.446189
0.427695
0.426295
0.416491
0.445443
0.467432
0.443013
0.576611
0.862223
0.395203
0.399996
0.413738
0.434287
0.426673
0.443425
0.433539
0.494212
0.625707
1.44392
0.407897
0.439627
0.432291
0.436471
0.42698
0.409079
0.459099
0.427461
0.479349
0.91341
0.434711
0.425122
0.42232
0.422659
0.41981
0.451544
0.41964
0.388173
0.708974
1.29975
0.41799
0.411526
0.426918
0.414091
0.444198
0.420574
0.41216
0.428503
0.567715
1.24401
0.424109
0.418644
0.38066
0.402735
0.393746
0.393605
0.377253
0.398929
0.56813
0.819827
0.409817
0.4204
0.436809
0.441017
0.441571
0.416392
0.418978
0.614778
0.467055
0.997367
0.399293
0.398349
0.412298
0.4255
0.430381
0.434578
0.430957
0.444928
0.650699
0.986246
0.421295
0.408496
0.389142
0.363184
0.384677
0.386215
0.388171
0.453345
0.550193
0.812495
0.409047
0.418375
0.428241
0.430498
0.432167
0.446219
0.506634
0.47758
0.510708
0.931308
0.41441
0.404345
0.403179
0.430918
0.409596
0.430998
0.571131
0.500735
0.724153
1.04984
0.434541
0.433439
0.427715
0.423518
0.440395
0.439582
0.48158
0.513051
0.530735
0.929139
0.417731
0.44036
0.421837
0.419734
0.402517
0.385999
0.407009
0.385239
0.478013
1.05553
0.41089
0.393862
0.388045
0.394975
0.37287
0.376336
0.393321
0.38175
0.381029
0.937073
0.412117
0.390596
0.384721
0.408185
0.412994
0.437756
0.524374
0.440763
0.527341
0.694041
0.407835
0.392179
0.381617
0.361499
0.371751
0.395411
0.438332
0.519514
0.503086
0.677542
0.400222
0.414822
0.439597
0.441484
0.416148
0.429704
0.424674
0.406683
0.529876
1.08985
0.431951
0.437882
0.441002
0.454236
0.454675
0.440837
0.419108
0.450094
0.491623
1.02958
0.407399
0.417186
0.427859
0.420426
0.4231
0.424339
0.422347
0.447329
0.640057
0.970534
0.417444
0.422888
0.408816
0.396473
0.391985
0.385318
0.383566
0.503513
0.495974
0.743848
0.417823
0.406209
0.404633
0.410527
0.412941
0.445285
0.43494
0.448221
0.509194
0.765952
0.40065
0.430195
0.413375
0.391684
0.421651
0.406861
0.397765
0.42228
0.66318
1.03861
0.393108
0.39102
0.409989
0.403882
0.388966
0.414011
0.421896
0.498727
0.445148
0.706081
0.400711
0.417171
0.407038
0.394444
0.394027
0.391223
0.393003
0.430191
0.464292
0.507416
0.425827
0.422563
0.431795
0.437807
0.446479
0.496809
0.48817
0.567306
0.995937
1.66483
0.399736
0.390927
0.389275
0.393238
0.389352
0.385026
0.476246
0.627354
0.535737
1.29326
0.404584
0.411972
0.410467
0.397093
0.438353
0.502008
0.503783
0.52116
0.635397
1.03132
0.404644
0.403075
0.423934
0.499897
0.496885
0.413577
0.384316
0.490978
0.706055
0.725824
0.397493
0.393764
0.467307
0.461864
0.411737
0.401517
0.425634
0.635207
0.615201
0.940577
0.380408
0.490838
0.445289
0.428659
0.426134
0.415943
0.420349
0.435137
0.575822
0.695388
0.421101
0.427016
0.443073
0.414043
0.454612
0.457112
0.432782
0.451199
0.469519
0.802292
0.39734
0.390149
0.399584
0.440924
0.451369
0.434211
0.398432
0.521152
0.610699
0.866306
0.40303
0.42076
0.411496
0.383551
0.392183
0.411969
0.421028
0.631784
0.799546
0.944864
0.408726
0.401662
0.389033
0.395814
0.410784
0.424479
0.534219
0.455693
0.61358
0.876913
0.412662
0.422312
0.409043
0.394979
0.401434
0.386436
0.488336
0.588594
0.504707
0.857899
0.408284
0.377321
0.422284
0.42068
0.402012
0.433078
0.50909
0.519635
0.648585
0.659256
0.388306
0.403592
0.40516
0.392359
0.391265
0.418757
0.469304
0.43326
0.63162
0.890558
0.416286
0.421838
0.424272
0.440327
0.432541
0.419998
0.475071
0.467599
0.543919
0.985642
0.425051
0.404481
0.400835
0.391316
0.410931
0.440648
0.454829
0.577348
0.52046
0.96682
0.42108
0.410531
0.408169
0.436907
0.442664
0.451695
0.504721
0.695933
0.763379
0.910432
0.446249
0.448103
0.438132
0.447133
0.417378
0.407787
0.407042
0.400551
0.596096
0.975848
0.442462
0.432817
0.444215
0.407837
0.407124
0.41007
0.449194
0.51596
0.692609
0.63135
0.413892
0.40624
0.421829
0.41822
0.442193
0.440254
0.429015
0.433789
0.510252
0.671871
0.449014
0.434594
0.407149
0.390811
0.39154
0.357876
0.50176
0.434529
0.628118
0.880371
0.413029
0.410843
0.390208
0.407501
0.408369
0.407728
0.403583
0.466144
0.494473
0.853023
0.374703
0.410843
0.4332
0.42188
0.416884
0.499885
0.540474
0.658979
0.633201
0.776815
0.417159
0.422722
0.445548
0.429636
0.435404
0.441299
0.450158
0.50548
0.756074
1.11796
0.424571
0.421934
0.431957
0.419002
0.412568
0.443253
0.447388
0.578987
0.728806
0.785077
0.408149
0.386094
0.40158
0.417172
0.413556
0.384253
0.492528
0.718511
0.706635
0.837585
0.426125
0.435011
0.397887
0.397632
0.39748
0.398987
0.375893
0.516454
0.466659
0.80344
0.41683
0.435295
0.466719
0.43454
0.399882
0.400837
0.388036
0.381072
0.600124
0.960915
0.389283
0.41257
0.3937
0.412755
0.425382
0.416161
0.420222
0.40881
0.546192
0.906995
0.367448
0.383205
0.379799
0.391268
0.425121
0.442665
0.452052
0.527562
0.812482
1.07505
0.412999
0.401019
0.385881
0.393341
0.399813
0.383383
0.386172
0.419583
0.494097
0.807255
0.398866
0.397966
0.400696
0.40071
0.412811
0.430418
0.419845
0.424912
0.522918
0.922178
0.393053
0.379468
0.404238
0.390625
0.400226
0.376672
0.389628
0.408937
0.50273
0.560712
0.435946
0.402301
0.387268
0.408073
0.413387
0.406423
0.408712
0.480741
0.639383
0.828948
0.430921
0.426352
0.413435
0.416207
0.387699
0.402854
0.424145
0.433676
0.471684
0.743879
0.375772
0.378167
0.384883
0.396857
0.418345
0.413441
0.494696
0.509401
0.635534
0.805788
0.421427
0.409184
0.436545
0.430105
0.438824
0.448659
0.427746
0.414998
0.394751
0.62609
0.439198
0.436055
0.4293
0.41883
0.421474
0.444822
0.438139
0.582198
0.813879
1.52501
0.415677
0.422469
0.383897
0.379406
0.398379
0.401145
0.393174
0.573592
0.857473
1.32159
0.424223
0.419595
0.411979
0.404304
0.417639
0.492442
0.410878
0.417274
0.501713
0.807304
0.396883
0.42228
0.429005
0.421616
0.418061
0.426048
0.409654
0.439686
0.459871
0.769188
0.433759
0.427941
0.41299
0.417522
0.44246
0.495028
0.474579
0.534775
0.603602
0.661062
0.375268
0.364004
0.386824
0.408602
0.435052
0.41779
0.503632
0.54539
0.475058
0.606641
0.402165
0.423185
0.404343
0.390399
0.425966
0.376503
0.459235
0.655994
0.589883
0.753336
0.406401
0.407909
0.390987
0.380004
0.418746
0.416024
0.439149
0.505032
0.645494
0.735833
0.442184
0.449649
0.422475
0.411649
0.404381
0.475517
0.530371
0.451974
0.682692
0.594654
0.418609
0.423398
0.455276
0.46419
0.41672
0.447436
0.505214
0.48514
0.511696
0.575138
0.426283
0.451715
0.431185
0.406033
0.438958
0.424214
0.417852
0.398515
0.42714
0.540731
0.401653
0.403705
0.424818
0.428189
0.411525
0.381895
0.485644
0.548193
0.56331
0.521025
0.434303
0.441255
0.437499
0.44721
0.425882
0.43616
0.446843
0.515724
0.625497
0.747029
0.360372
0.358697
0.377268
0.384195
0.420649
0.41771
0.420165
0.43197
0.59899
0.777785
0.393046
0.378514
0.369013
0.403134
0.405624
0.39574
0.42624
0.437809
0.562663
0.728918
0.405681
0.408627
0.418655
0.46759
0.465521
0.507895
0.537681
0.623028
0.739487
0.863953
0.413548
0.41294
0.434804
0.443157
0.419027
0.440418
0.436592
0.45726
0.617855
0.721053
0.420596
0.428221
0.405117
0.407988
0.433163
0.416322
0.441157
0.505477
0.571299
0.515301
0.429027
0.424869
0.412201
0.433945
0.441897
0.463901
0.540653
0.568707
0.624682
0.521358
0.415644
0.430602
0.432159
0.421929
0.406403
0.439429
0.476497
0.535068
0.686139
0.60822
0.438348
0.424596
0.422831
0.407696
0.38076
0.407292
0.46626
0.481887
0.557049
0.838447
0.388682
0.393428
0.394322
0.403122
0.417582
0.410025
0.443478
0.421115
0.464714
0.780975
0.384504
0.387594
0.393382
0.397978
0.412909
0.411785
0.448037
0.52564
0.650453
0.896648
0.412281
0.422282
0.397283
0.382025
0.397763
0.428393
0.461518
0.455525
0.484289
0.554824
0.419684
0.426886
0.423407
0.412856
0.408669
0.39485
0.475214
0.440671
0.538774
0.672466
0.403776
0.395332
0.391721
0.398124
0.433926
0.421975
0.417878
0.429119
0.653002
0.781423
0.405365
0.390445
0.357503
0.364679
0.360139
0.36913
0.387055
0.401047
0.583231
0.498115
0.421694
0.399748
0.421111
0.423939
0.427402
0.418955
0.41451
0.406233
0.65854
0.67748
0.400758
0.415889
0.396611
0.397021
0.395552
0.399785
0.389117
0.475257
0.616862
0.759393
0.423127
0.417352
0.422588
0.422108
0.395741
0.395574
0.390842
0.425299
0.483252
0.614702
0.441517
0.452249
0.410583
0.389771
0.382705
0.38684
0.425539
0.431647
0.518828
0.59177
0.397494
0.408286
0.405812
0.426696
0.439186
0.401877
0.411026
0.546116
0.545153
0.601665
0.425085
0.443134
0.415958
0.416809
0.406848
0.416992
0.376558
0.444207
0.547084
0.593058
0.425233
0.422555
0.440854
0.420566
0.449059
0.490393
0.431727
0.415646
0.462827
0.513444
0.399493
0.400166
0.391172
0.409647
0.412578
0.422026
0.425499
0.551388
0.527408
0.501303
0.426811
0.433221
0.393405
0.399504
0.390525
0.379982
0.467339
0.424514
0.446969
0.472451
0.398923
0.402792
0.402479
0.386416
0.399915
0.391203
0.498899
0.666253
0.595063
1.00437
0.408242
0.388609
0.397665
0.400596
0.401014
0.421129
0.604894
0.673302
0.713342
0.836143
0.397006
0.386381
0.400718
0.406725
0.437153
0.435299
0.389649
0.623612
0.770451
0.743601
0.442283
0.441639
0.469341
0.407238
0.385596
0.400966
0.495114
0.670571
0.473706
0.810656
0.390762
0.384473
0.481346
0.433525
0.422618
0.415011
0.392998
0.466558
0.509027
0.72935
0.397756
0.368171
0.400077
0.49068
0.411509
0.425048
0.491836
0.420153
0.454046
0.505213
0.421968
0.429291
0.419936
0.483979
0.501092
0.4668
0.518973
0.498337
0.520647
0.588096
0.430121
0.426731
0.411384
0.429252
0.441184
0.460695
0.522701
0.418573
0.531955
0.465063
0.409482
0.407384
0.428796
0.456694
0.474264
0.438523
0.411942
0.490956
0.58811
0.514269
0.383556
0.388246
0.406842
0.427822
0.457059
0.448132
0.446459
0.514416
0.487366
0.693797
0.357055
0.322919
0.365863
0.392714
0.408279
0.413576
0.508513
0.485482
0.418811
0.548588
0.445942
0.446999
0.432372
0.412942
0.465942
0.517421
0.40684
0.547702
0.383876
0.526698
0.447853
0.422225
0.436637
0.438917
0.420386
0.396754
0.416539
0.424481
0.558889
0.522153
0.419256
0.437648
0.435189
0.42982
0.465258
0.427732
0.43718
0.577253
0.535235
0.592742
0.446461
0.469247
0.474809
0.424823
0.390149
0.374182
0.36831
0.489304
0.415427
0.400672
0.427035
0.480558
0.500588
0.412409
0.430216
0.506031
0.453722
0.530882
0.579138
0.419123
0.491182
0.449608
0.402399
0.441506
0.50968
0.424948
0.424214
0.445624
0.616727
0.823903
0.42717
0.408374
0.433986
0.430189
0.414723
0.43444
0.441737
0.427679
0.434384
0.500727
0.436024
0.444656
0.42729
0.449476
0.49289
0.527614
0.667609
0.608085
0.568032
0.494145
0.390696
0.397062
0.399561
0.404063
0.397454
0.418696
0.412239
0.439519
0.712654
0.42016
0.433452
0.425148
0.412418
0.412669
0.44867
0.415861
0.578309
0.418603
0.442142
0.532264
0.393213
0.384142
0.406018
0.424285
0.419476
0.449904
0.456268
0.428587
0.462026
0.688287
0.39196
0.400373
0.392665
0.386974
0.37901
0.40617
0.411687
0.41263
0.458764
0.926784
0.416313
0.400006
0.425873
0.467039
0.482363
0.462737
0.461845
0.569091
0.661622
0.474889
0.410263
0.396976
0.424715
0.427913
0.430514
0.438366
0.432258
0.41032
0.491066
0.559593
0.392231
0.404167
0.390829
0.403167
0.41078
0.399488
0.395903
0.558834
0.538341
0.676621
0.413406
0.396022
0.387654
0.39745
0.416435
0.436972
0.424175
0.573115
0.487021
0.780206
0.440329
0.431846
0.437274
0.430025
0.414951
0.40301
0.40684
0.595426
0.505048
0.465671
0.411221
0.412608
0.442744
0.436309
0.424678
0.394186
0.477781
0.396601
0.512837
0.590856
0.443673
0.426643
0.414407
0.385898
0.383691
0.381794
0.396794
0.521238
0.442368
0.405199
0.42387
0.411645
0.403258
0.416667
0.396733
0.421822
0.423151
0.455319
0.442057
0.463727
0.395066
0.367259
0.390058
0.418703
0.433572
0.455106
0.476364
0.447223
0.659464
0.686098
0.399604
0.397249
0.427052
0.442574
0.410209
0.414345
0.461265
0.48613
0.489474
0.463685
0.417557
0.4278
0.390939
0.382634
0.384275
0.380712
0.369156
0.452461
0.562253
0.546737
0.435824
0.426828
0.440593
0.456117
0.423298
0.435027
0.442853
0.448612
0.480609
0.454122
0.433704
0.425828
0.416039
0.399219
0.448791
0.513762
0.509523
0.398944
0.404485
0.437784
0.396348
0.385885
0.392688
0.419025
0.443263
0.428226
0.569312
0.494929
0.572543
0.813952
0.389077
0.421192
0.409898
0.457668
0.475682
0.538863
0.574584
0.493887
0.484389
0.629132
0.411381
0.382615
0.397493
0.442906
0.436058
0.425212
0.434316
0.506612
0.509456
0.648098
0.410131
0.437239
0.413389
0.418088
0.392999
0.399072
0.389927
0.412119
0.613642
0.76569
0.423052
0.476735
0.437239
0.393613
0.393079
0.526817
0.422587
0.391657
0.569455
0.583061
0.432486
0.445986
0.436406
0.426227
0.427515
0.577849
0.438712
0.61727
0.410597
0.388973
0.408088
0.388081
0.40014
0.415205
0.423731
0.435061
0.446206
0.461161
0.399421
0.418211
0.410343
0.406287
0.413058
0.418694
0.4247
0.414644
0.412531
0.405914
0.502537
0.429548
0.420222
0.436298
0.420922
0.419888
0.423125
0.412638
0.459848
0.437024
0.439382
0.613276
0.454993
0.472325
0.426557
0.449911
0.433888
0.529255
0.418537
0.423521
0.434287
0.513581
0.40814
0.403383
0.43838
0.406898
0.376523
0.382422
0.420297
0.413099
0.392947
0.54956
0.385958
0.423424
0.445356
0.487799
0.438679
0.3925
0.425311
0.543892
0.454342
0.54108
0.409654
0.419808
0.396556
0.370855
0.398839
0.420938
0.495303
0.42786
0.445392
0.464231
0.400488
0.409818
0.442569
0.452257
0.440319
0.554935
0.531218
0.523363
0.4182
0.520454
0.444098
0.430397
0.397847
0.39006
0.379649
0.378697
0.393231
0.377445
0.389409
0.446056
0.396932
0.392662
0.40001
0.443495
0.503657
0.509024
0.47325
0.437577
0.503585
0.513459
0.478198
0.436667
0.398992
0.380649
0.420703
0.528175
0.415711
0.594466
0.550716
0.493198
0.415563
0.404536
0.423144
0.458448
0.455029
0.42029
0.393461
0.463034
0.501612
0.475902
0.408156
0.424538
0.41709
0.409425
0.401148
0.418231
0.47213
0.528152
0.517546
0.403708
0.428572
0.43625
0.483375
0.50839
0.509056
0.547086
0.408495
0.389617
0.452881
0.448297
0.409766
0.40129
0.406699
0.403966
0.505307
0.489215
0.42569
0.404312
0.414899
0.488444
0.426583
0.398772
0.3832
0.380529
0.409883
0.421244
0.391209
0.419428
0.551301
0.548264
0.395206
0.389874
0.385363
0.38556
0.384398
0.365405
0.38957
0.439033
0.482401
0.535544
0.402164
0.425039
0.441134
0.442714
0.420793
0.411565
0.402052
0.515596
0.502531
0.526883
0.398204
0.426641
0.411175
0.409347
0.408861
0.408744
0.408808
0.395264
0.45503
0.481408
0.438009
0.414497
0.411301
0.41942
0.412584
0.414474
0.45294
0.591273
0.503664
0.554734
0.375137
0.397271
0.41865
0.408112
0.401211
0.385856
0.419338
0.478866
0.468227
0.553553
0.439631
0.446657
0.424727
0.41646
0.393293
0.392867
0.421665
0.446233
0.431278
0.449328
0.419462
0.40569
0.406508
0.394896
0.399917
0.396387
0.415392
0.490092
0.415411
0.59273
0.405807
0.402528
0.417268
0.438659
0.44449
0.411946
0.437588
0.406561
0.415722
0.405135
0.424689
0.425386
0.393014
0.367514
0.379974
0.426141
0.503105
0.502237
0.430743
0.567733
0.42374
0.437018
0.44205
0.432577
0.435196
0.426309
0.420708
0.523709
0.523923
0.443586
0.449671
0.430143
0.389929
0.388531
0.386149
0.406011
0.447362
0.480303
0.551194
0.471704
0.381798
0.354296
0.373479
0.391443
0.423965
0.429713
0.448859
0.48829
0.47427
0.55436
0.418276
0.420039
0.418505
0.420082
0.416654
0.443825
0.446681
0.447558
0.484538
0.521683
0.410257
0.423604
0.420118
0.410338
0.406497
0.421618
0.409215
0.42529
0.459855
0.495251
0.400883
0.458565
0.505185
0.536454
0.498413
0.45825
0.441695
0.485322
0.701349
1.11004
0.456746
0.441888
0.412875
0.401945
0.412472
0.465632
0.503033
0.534262
0.639687
0.85113
0.453503
0.44902
0.447378
0.462244
0.433962
0.421008
0.556098
0.502139
0.855696
0.863391
0.402913
0.432055
0.401879
0.384143
0.359158
0.352727
0.402214
0.514932
0.63589
0.521792
0.395725
0.379984
0.40151
0.41053
0.418102
0.406433
0.398545
0.452811
0.434464
0.505788
0.445912
0.441625
0.429076
0.420953
0.408225
0.433662
0.501517
0.462781
0.436486
0.470258
0.407861
0.393814
0.405945
0.40933
0.403715
0.435902
0.435909
0.442103
0.456923
0.477484
0.420561
0.412272
0.404078
0.423006
0.427977
0.422276
0.419284
0.410285
0.537569
0.388051
0.394012
0.388688
0.395249
0.376226
0.459836
0.425539
0.456144
0.498614
0.447589
0.508098
0.406187
0.434887
0.440297
0.430144
0.41831
0.454538
0.438785
0.449732
0.47126
0.504545
0.426483
0.41635
0.430148
0.42827
0.45724
0.467508
0.450415
0.416818
0.491535
0.51253
0.431062
0.412558
0.399059
0.409657
0.396352
0.413412
0.479129
0.422742
0.435854
0.527823
0.399743
0.383865
0.389765
0.422926
0.426648
0.390255
0.458625
0.44711
0.463651
0.445915
0.421204
0.431857
0.424941
0.481721
0.513896
0.403819
0.467996
0.409466
0.440884
0.457407
0.410976
0.379841
0.403265
0.393254
0.40788
0.404629
0.447145
0.435247
0.449776
0.51381
0.400231
0.433891
0.432181
0.427285
0.46059
0.432219
0.419088
0.420132
0.448025
0.534963
0.43224
0.440524
0.416644
0.413202
0.394607
0.397142
0.556816
0.531398
0.466564
0.533191
0.381624
0.400579
0.42216
0.411851
0.433091
0.430357
0.419981
0.395662
0.406225
0.552228
0.396327
0.39252
0.374624
0.368602
0.434554
0.480337
0.428727
0.517647
0.418426
0.423119
0.423496
0.424076
0.438191
0.419511
0.418089
0.463754
0.373909
0.420185
0.42221
0.489197
0.358802
0.40431
0.420464
0.454711
0.409496
0.420534
0.419108
0.40518
0.37341
0.496467
0.409956
0.390161
0.378094
0.386403
0.420093
0.424032
0.425315
0.492622
0.458788
0.484826
0.398528
0.397288
0.409725
0.396082
0.38635
0.369688
0.393283
0.449938
0.452755
0.504669
0.392442
0.450198
0.446228
0.418867
0.43901
0.472306
0.487931
0.473565
0.430428
0.551033
0.426657
0.404917
0.399548
0.411559
0.389938
0.381564
0.387999
0.421344
0.381832
0.478461
0.394105
0.390066
0.383282
0.394496
0.415373
0.43358
0.46127
0.459098
0.402244
0.515439
0.413947
0.402503
0.39394
0.403777
0.415211
0.393012
0.434192
0.622951
0.525571
0.487572
0.41772
0.400654
0.405039
0.374749
0.385072
0.413259
0.576809
0.453291
0.409837
0.482095
0.374886
0.414932
0.406273
0.407648
0.415221
0.419886
0.437695
0.413175
0.515951
0.520343
0.418598
0.414766
0.410838
0.411028
0.386484
0.391909
0.454557
0.407947
0.402566
0.364835
0.404188
0.402863
0.394624
0.406614
0.391741
0.397982
0.465336
0.429465
0.410457
0.549557
0.395184
0.390605
0.405164
0.397713
0.427472
0.455794
0.454335
0.49061
0.426132
0.451226
0.415673
0.425983
0.455105
0.439109
0.395433
0.405293
0.417705
0.596591
0.537618
0.470589
0.392135
0.390099
0.411608
0.417387
0.43016
0.401432
0.481751
0.485043
0.403471
0.478138
0.377671
0.408757
0.426114
0.415866
0.406519
0.417148
0.401617
0.462733
0.482623
0.420035
0.428896
0.422896
0.44387
0.428597
0.448253
0.442543
0.447398
0.465925
0.46349
0.471457
0.40692
0.419442
0.42748
0.417358
0.44343
0.504352
0.557814
0.565691
0.591246
1.18012
0.398281
0.388823
0.38891
0.41266
0.543646
0.491328
0.473696
0.486305
0.654068
1.18684
0.400026
0.413295
0.422204
0.459982
0.513013
0.412686
0.399329
0.524301
0.660884
0.688699
0.405867
0.400708
0.438271
0.453787
0.456691
0.539808
0.442708
0.54055
0.620375
0.645493
0.403956
0.427594
0.428522
0.420064
0.47242
0.5412
0.499472
0.492392
0.614651
0.509426
0.425625
0.438069
0.43083
0.424599
0.423774
0.451326
0.495722
0.47897
0.573525
0.493662
0.436086
0.44451
0.450468
0.443196
0.400686
0.408657
0.390614
0.375366
0.422633
0.431258
0.406897
0.438336
0.43397
0.436474
0.420587
0.383519
0.411411
0.44608
0.450924
0.456574
0.436603
0.408734
0.415563
0.405736
0.429324
0.448656
0.439831
0.520427
0.463977
0.458792
0.439596
0.434659
0.444777
0.466675
0.457532
0.482047
0.42608
0.409165
0.433917
0.41853
0.418971
0.468983
0.460803
0.466905
0.415595
0.440079
0.444549
0.396138
0.379796
0.427283
0.418975
0.405286
0.418411
0.444033
0.460996
0.42565
0.431752
0.479203
0.397442
0.470886
0.39794
0.410116
0.403779
0.38899
0.39397
0.421326
0.426637
0.426633
0.434937
0.426422
0.429952
0.425686
0.504728
0.428652
0.397914
0.413012
0.410176
0.395815
0.394394
0.40625
0.426717
0.425782
0.417354
0.430408
0.417741
0.447973
0.496575
0.44632
0.486584
0.416868
0.408452
0.438361
0.441001
0.439787
0.41691
0.430117
0.44693
0.456257
0.498832
0.523102
0.427215
0.409942
0.387042
0.402685
0.427665
0.447688
0.454968
0.410228
0.417756
0.447271
0.407299
0.414339
0.427411
0.440374
0.409467
0.434248
0.421263
0.457822
0.528722
0.423439
0.424579
0.433339
0.428256
0.420022
0.480869
0.399907
0.407471
0.442204
0.428273
0.435866
0.41128
0.412995
0.400971
0.411532
0.393555
0.402744
0.459717
0.463031
0.431846
0.49866
0.402694
0.404381
0.411528
0.407111
0.424092
0.46906
0.367138
0.378782
0.372199
0.363263
0.397744
0.373608
0.397574
0.44147
0.42699
0.448855
0.418027
0.457564
0.413611
0.442059
0.422374
0.419683
0.415782
0.397044
0.387046
0.391921
0.393123
0.389734
0.371781
0.381995
0.380965
0.370961
0.360222
0.407134
0.420173
0.403824
0.492423
0.450674
0.451494
0.460734
0.414706
0.423262
0.418035
0.412489
0.403892
0.44302
0.439439
0.441938
0.437309
0.410046
0.421531
0.400096
0.421517
0.416559
0.427522
0.403653
0.489013
0.417447
0.474524
0.439568
0.415333
0.433129
0.42635
0.411085
0.418341
0.412998
0.408338
0.46346
0.494063
0.611504
0.446122
0.425993
0.403329
0.408792
0.403023
0.443157
0.437927
0.499978
0.427452
0.466211
0.414764
0.417164
0.429836
0.428563
0.424887
0.410658
0.462627
0.406283
0.453026
0.391337
0.437077
0.408808
0.41868
0.43501
0.439698
0.442427
0.444797
0.450503
0.470976
0.483298
0.433193
0.458352
0.441168
0.416526
0.425313
0.4254
0.414299
0.44672
0.407466
0.520542
0.442155
0.406598
0.405885
0.403637
0.397518
0.391928
0.407304
0.407263
0.417149
0.445128
0.396231
0.447284
0.419529
0.413535
0.456207
0.438972
0.461241
0.485133
0.602993
0.504493
0.420353
0.405183
0.390676
0.38595
0.374021
0.502982
0.418616
0.413182
0.396553
0.421811
0.396226
0.41786
0.407036
0.404465
0.420538
0.412337
0.426084
0.409304
0.422648
0.418359
0.398356
0.396687
0.418778
0.419996
0.430218
0.407593
0.390286
0.412397
0.429878
0.444163
0.407959
0.417281
0.426311
0.431568
0.420873
0.422111
0.413918
0.401905
0.447854
0.918265
0.40102
0.404018
0.40887
0.449112
0.489487
0.542723
0.549022
0.52003
0.689913
0.872099
0.438557
0.450673
0.436419
0.47521
0.368069
0.375897
0.411266
0.43891
0.649563
0.634903
0.430688
0.407899
0.413401
0.428027
0.403439
0.387446
0.3747
0.41497
0.537046
0.57786
0.395233
0.387285
0.386909
0.398611
0.384366
0.471275
0.480537
0.543247
0.588255
0.559903
0.410953
0.423271
0.440856
0.442672
0.430235
0.44575
0.436356
0.446189
0.421959
0.433546
0.437661
0.416925
0.421712
0.403629
0.438574
0.413868
0.487754
0.511201
0.469085
0.44512
0.398516
0.38655
0.397349
0.409509
0.38739
0.400674
0.399309
0.444303
0.400015
0.453128
0.438805
0.426357
0.412193
0.413266
0.397294
0.39411
0.386634
0.385412
0.391739
0.433768
0.405785
0.391296
0.393523
0.384936
0.392056
0.381244
0.373804
0.383871
0.366051
0.418994
0.422259
0.425348
0.433239
0.426639
0.446109
0.52009
0.405071
0.417158
0.403207
0.418316
0.377479
0.386437
0.383898
0.417236
0.402488
0.407653
0.495293
0.422729
0.456682
0.506109
0.440806
0.453223
0.437219
0.39069
0.398654
0.40964
0.423442
0.425032
0.423696
0.435419
0.412703
0.395611
0.413013
0.41874
0.436275
0.406347
0.411269
0.404212
0.438717
0.501553
0.398094
0.395376
0.416871
0.420156
0.418441
0.502423
0.462114
0.481405
0.466147
0.457912
0.446669
0.45598
0.455852
0.425491
0.425121
0.411053
0.382106
0.376374
0.438599
0.517232
0.399291
0.379107
0.376524
0.407308
0.426216
0.484126
0.419406
0.438133
0.43644
0.382907
0.405086
0.42081
0.435539
0.406433
0.394387
0.397992
0.423381
0.414375
0.394261
0.419235
0.431495
0.423378
0.406293
0.401037
0.42735
0.442288
0.406579
0.442355
0.443039
0.426588
0.423658
0.433789
0.451227
0.43466
0.404619
0.41088
0.413321
0.407598
0.406945
0.399412
0.432845
0.418256
0.394543
0.3758
0.388941
0.406232
0.399412
0.386677
0.389446
0.469635
0.408886
0.37333
0.379165
0.406295
0.412517
0.386046
0.384326
0.400311
0.40509
0.426147
0.429366
0.479302
0.466015
0.447203
0.44733
0.430844
0.404634
0.385861
0.380561
0.395267
0.440061
0.442656
0.456495
0.418699
0.389124
0.412465
0.458178
0.451499
0.441729
0.425156
0.402511
0.390878
0.401294
0.431749
0.441661
0.433572
0.400974
0.39445
0.40678
0.419189
0.422213
0.446661
0.432707
0.396624
0.402282
0.477616
0.417675
0.417396
0.499887
0.439314
0.418642
0.393723
0.403429
0.432769
0.446082
0.426571
0.42048
0.404249
0.420382
0.501761
0.403591
0.415316
0.436287
0.408286
0.401377
0.4747
0.414268
0.437887
0.457608
0.430558
0.403417
0.407168
0.405701
0.42241
0.43837
0.442969
0.414493
0.491648
0.41712
0.409687
0.398742
0.426419
0.451283
0.456304
0.431694
0.402334
0.474403
0.433913
0.456171
0.492399
0.424582
0.41541
0.426095
0.419255
0.389143
0.393416
0.431326
0.386791
0.373131
0.38253
0.422856
0.414783
0.409391
0.433089
0.428099
0.402341
0.410247
0.401206
0.409392
0.477519
0.410141
0.421396
0.432701
0.455098
0.459005
0.442691
0.423104
0.398796
0.463944
0.426311
0.408669
0.434523
0.431215
0.425905
0.444377
0.467407
0.419598
0.434156
0.461011
0.440998
0.448261
0.415583
0.425654
0.424784
0.42424
0.407015
0.397219
0.412766
0.382905
0.376664
0.421504
0.421177
0.414885
0.430933
0.429755
0.425696
0.410872
0.402729
0.380056
0.37516
0.417306
0.430573
0.425483
0.4094
0.401913
0.409528
0.416169
0.432989
0.505353
0.981329
0.392112
0.376003
0.371046
0.386862
0.415172
0.428856
0.507245
0.479312
0.75009
0.763129
0.448067
0.449492
0.430349
0.432524
0.439223
0.423625
0.44323
0.467348
0.381259
0.503714
0.414905
0.400163
0.447885
0.413275
0.408562
0.41733
0.452226
0.355391
0.385679
0.695643
0.409837
0.41806
0.441953
0.417955
0.416282
0.426935
0.499867
0.407961
0.463149
0.45611
0.406409
0.375434
0.383912
0.406723
0.435603
0.43601
0.413503
0.512441
0.443501
0.470207
0.411391
0.403285
0.402253
0.397308
0.370589
0.378799
0.479551
0.425026
0.444275
0.507737
0.400261
0.398164
0.406817
0.399952
0.431599
0.438895
0.439078
0.419122
0.418872
0.448573
0.417974
0.427373
0.43047
0.423626
0.434382
0.410994
0.415824
0.381765
0.386488
0.422957
0.398036
0.384173
0.415678
0.416823
0.491881
0.431284
0.414948
0.408937
0.41162
0.400895
0.406216
0.398205
0.373243
0.38167
0.391501
0.427383
0.445781
0.456662
0.409167
0.462282
0.382866
0.369873
0.382365
0.380142
0.377396
0.387876
0.397057
0.396102
0.430974
0.466124
0.420419
0.421866
0.402187
0.405753
0.380595
0.378711
0.392093
0.410646
0.422994
0.433151
0.412985
0.42992
0.406534
0.412017
0.424468
0.446084
0.434315
0.423751
0.440336
0.411415
0.403096
0.429578
0.429769
0.431218
0.430797
0.475773
0.428294
0.389652
0.409145
0.431136
0.381678
0.358159
0.391087
0.38553
0.39529
0.424569
0.417276
0.40336
0.392821
0.4421
0.409301
0.418207
0.405527
0.415372
0.471765
0.396554
0.377427
0.434711
0.408519
0.42705
0.414925
0.422984
0.421265
0.399234
0.394528
0.399132
0.396547
0.385872
0.395143
0.394644
0.412532
0.438062
0.410342
0.407147
0.393633
0.383005
0.371982
0.411015
0.411213
0.42788
0.411051
0.412354
0.420649
0.418625
0.446011
0.452419
0.449157
0.421819
0.411494
0.419319
0.411733
0.419929
0.417887
0.423024
0.397713
0.407659
0.417661
0.438111
0.435632
0.400627
0.423806
0.420859
0.401718
0.390633
0.392826
0.397837
0.39594
0.398889
0.415055
0.429323
0.402554
0.405618
0.426032
0.416317
0.428583
0.431456
0.431036
0.402718
0.376489
0.356697
0.382837
0.406682
0.419052
0.443768
0.432521
0.434363
0.423724
0.436501
0.430704
0.450719
0.409803
0.399856
0.356654
0.341661
0.357359
0.3923
0.391898
0.405683
0.399306
0.390144
0.412254
0.403001
0.443136
0.44462
0.401239
0.443407
0.387326
0.373348
0.428232
0.43959
0.375876
0.379784
0.343099
0.359395
0.349404
0.359727
0.399259
0.409609
0.498183
0.418927
0.396556
0.382427
0.376301
0.366295
0.383333
0.395439
0.394581
0.382708
0.377035
0.411289
0.386
0.40543
0.408385
0.391877
0.438555
0.416439
0.461113
0.497531
0.425017
0.450247
0.398228
0.382248
0.357153
0.371245
0.378182
0.39954
0.395863
0.400354
0.425067
0.43372
0.408038
0.421433
0.420032
0.398161
0.385518
0.419236
0.387522
0.421789
0.422307
0.424406
0.431523
0.475307
0.464177
0.456024
0.410146
0.44518
0.411361
0.425963
0.437403
0.480177
0.419558
0.414701
0.403295
0.413521
0.414965
0.397588
0.380259
0.373594
0.383287
0.370699
0.439118
0.432746
0.415265
0.396281
0.423894
0.422948
0.43149
0.441713
0.45328
0.443637
0.405768
0.427782
0.446329
0.449468
0.450838
0.442459
0.433778
0.402261
0.419626
0.428445
0.396213
0.409385
0.402245
0.408565
0.381849
0.371711
0.403665
0.421062
0.395656
0.366404
0.410997
0.421457
0.430015
0.429327
0.448181
0.448893
0.476482
0.462248
0.525122
0.877545
0.417254
0.394971
0.395373
0.393465
0.372949
0.400432
0.533362
0.591667
0.795954
0.9008
0.42425
0.41487
0.390402
0.402059
0.390782
0.502012
0.420626
0.429627
0.501273
0.676214
0.40677
0.446832
0.457725
0.430276
0.412345
0.431798
0.471751