/*--------------------------------*- C++ -*----------------------------------*\
| =========                 |                                                 |
| \\      /  F ield         | OpenFOAM: The Open Source CFD Toolbox           |
|  \\    /   O peration     | Version:  2.4.0-MNF                             |
|   \\  /    A nd           | Web:      www.OpenFOAM.org                      |
|    \\/     M anipulation  |                                                 |
\*---------------------------------------------------------------------------*/
FoamFile
{
    version     2.0;
    format      ascii;
    class       volScalarField;
    location    "5e-05";
    object      separationOfFreePaths_Ar;
}
// * * * * * * * * * * * * * * * * * * * * * * * * * * * * * * * * * * * * * //

dimensions      [0 0 0 0 0 0 0];

internalField   nonuniform List<scalar> 
77760
(
0.142267
0.0948122
0.110283
0.138354
0.0932186
0.101475
0.118376
0.104827
0.0755835
0.0847829
0.109988
0.0914007
0.121893
0.101337
0.0998498
0.103717
0.124267
0.10411
0.073748
0.0830622
0.139751
0.0897798
0.10313
0.0930274
0.0968967
0.0891863
0.122278
0.105727
0.0873814
0.0840895
0.0667103
0.116478
0.112054
0.0885297
0.100995
0.0925924
0.106966
0.106771
0.0885655
0.0712635
0.130138
0.126917
0.0757955
0.0922277
0.0981365
0.13272
0.124264
0.0982567
0.0944133
0.0903767
0.0937126
0.102886
0.126646
0.124149
0.119411
0.103839
0.0842657
0.107097
0.103679
0.109412
0.0893965
0.151863
0.0921863
0.0885337
0.0975812
0.116548
0.136232
0.0973257
0.128821
0.0944584
0.0969473
0.112156
0.101158
0.121848
0.119164
0.120734
0.0913025
0.104312
0.0822426
0.0899249
0.103617
0.0828931
0.0919145
0.103444
0.122258
0.103566
0.0940972
0.0800563
0.131453
0.07689
0.120531
0.105435
0.115728
0.0745114
0.114291
0.0955342
0.105911
0.0962581
0.104741
0.0892282
0.0883192
0.101726
0.119053
0.106904
0.090994
0.0817629
0.108973
0.0961255
0.106779
0.0924727
0.110793
0.098352
0.0860487
0.0953179
0.11615
0.0997414
0.0959686
0.0805951
0.0872436
0.0750243
0.0878823
0.0968793
0.113785
0.0907957
0.106366
0.128796
0.0859392
0.08348
0.0822432
0.0929032
0.0950325
0.113143
0.107509
0.119609
0.110547
0.143543
0.0973985
0.104656
0.0737014
0.079388
0.0921596
0.122939
0.095399
0.0983896
0.111456
0.0729971
0.102401
0.0784809
0.0995189
0.0800471
0.120257
0.108207
0.100829
0.115206
0.0961427
0.121019
0.0906618
0.0966283
0.0676487
0.0881437
0.094947
0.103694
0.0821049
0.117
0.0944743
0.145651
0.114724
0.0907697
0.088147
0.0765446
0.0965798
0.0622936
0.109862
0.0902254
0.105731
0.0828616
0.107861
0.109474
0.0907417
0.0809035
0.105216
0.0838429
0.0814274
0.115809
0.10225
0.0811393
0.094844
0.10446
0.0860529
0.0709935
0.093278
0.0997744
0.106267
0.0968238
0.0987601
0.129271
0.12562
0.0926953
0.0902473
0.0966483
0.101453
0.109076
0.102605
0.120184
0.0946933
0.0887477
0.0912813
0.0879311
0.0891554
0.0815811
0.0829006
0.0947139
0.141414
0.111156
0.121327
0.086843
0.103363
0.0924535
0.108647
0.0871586
0.108918
0.0919233
0.112416
0.101211
0.0893262
0.113242
0.0836945
0.121971
0.0926335
0.0801676
0.129658
0.124013
0.108039
0.111209
0.120789
0.0963309
0.098561
0.0721607
0.0850683
0.089952
0.117946
0.10204
0.0842701
0.124856
0.114721
0.118747
0.115428
0.139235
0.106556
0.0908922
0.0988272
0.0969722
0.157829
0.122774
0.128469
0.10262
0.0796681
0.132445
0.0916679
0.0966686
0.105847
0.112916
0.117073
0.113875
0.113275
0.132959
0.0849616
0.111544
0.0970974
0.106909
0.121541
0.114599
0.106685
0.128507
0.129305
0.0949411
0.084704
0.0889621
0.109446
0.090175
0.0828929
0.0824048
0.111602
0.105075
0.0903651
0.0969599
0.106229
0.113971
0.0905109
0.0906073
0.114003
0.111816
0.107071
0.0937172
0.088962
0.0810995
0.0826542
0.0838769
0.111411
0.0931735
0.100581
0.0813578
0.11311
0.111958
0.0972715
0.0940612
0.106026
0.112095
0.100188
0.0894827
0.104785
0.12205
0.107295
0.0646832
0.0929012
0.0914318
0.0899316
0.0595558
0.0951587
0.0777892
0.129218
0.120626
0.131712
0.123934
0.110226
0.08535
0.0786244
0.0953325
0.100828
0.0917335
0.0955267
0.112039
0.108662
0.0961859
0.0867706
0.0925815
0.11917
0.0993529
0.112336
0.0996304
0.117087
0.116264
0.12944
0.101655
0.0851088
0.075803
0.108879
0.106133
0.0914968
0.104328
0.112141
0.115889
0.102607
0.0901479
0.101459
0.0804513
0.0871082
0.11899
0.104988
0.0993054
0.0934992
0.090965
0.100246
0.117389
0.0999846
0.0946397
0.116872
0.115886
0.0877457
0.082198
0.0974705
0.0971901
0.102645
0.0767458
0.108772
0.113954
0.100116
0.106691
0.073564
0.0710897
0.104543
0.125188
0.115847
0.0966767
0.134401
0.1157
0.125899
0.100211
0.0766018
0.0823541
0.111203
0.0768337
0.14968
0.107538
0.121468
0.128118
0.105404
0.0756939
0.116375
0.096973
0.0889815
0.137116
0.0863537
0.109659
0.119659
0.102008
0.108568
0.115901
0.12154
0.102193
0.129116
0.0772204
0.103787
0.115734
0.0909806
0.0882494
0.0903271
0.0989257
0.0976315
0.1159
0.105707
0.102308
0.114052
0.115758
0.104836
0.12209
0.111802
0.130134
0.123791
0.078239
0.113612
0.106864
0.0817804
0.078657
0.116359
0.10987
0.125281
0.0923288
0.0794934
0.0712733
0.124268
0.111686
0.126484
0.106478
0.0959894
0.132795
0.104027
0.0806408
0.089603
0.107289
0.106776
0.0953432
0.108532
0.129525
0.119936
0.103474
0.12028
0.119173
0.102968
0.0821372
0.124547
0.106466
0.100997
0.0877618
0.106985
0.101727
0.100013
0.0998253
0.0879807
0.101646
0.0748385
0.0864703
0.0974566
0.1027
0.1028
0.098061
0.119354
0.0891152
0.0906271
0.0870694
0.123263
0.106644
0.100328
0.0880491
0.109262
0.096609
0.0951132
0.130125
0.0883949
0.100076
0.0954979
0.117823
0.127066
0.118221
0.1286
0.0959359
0.104507
0.123453
0.14975
0.113667
0.0998648
0.084692
0.0952985
0.103789
0.124299
0.0957111
0.132384
0.0876245
0.103816
0.0796113
0.100945
0.0879481
0.0923882
0.121159
0.0897283
0.108145
0.0841499
0.085047
0.0891341
0.0901133
0.132346
0.112976
0.101723
0.123334
0.103862
0.0929813
0.0835334
0.102867
0.08946
0.069154
0.103707
0.10745
0.115024
0.101084
0.106391
0.0906316
0.0924975
0.107369
0.0855491
0.122865
0.0799074
0.0946691
0.0815608
0.0838769
0.122036
0.114592
0.10811
0.0720456
0.0801175
0.10193
0.11426
0.10755
0.091836
0.0750648
0.101972
0.12876
0.100913
0.100027
0.0862798
0.109812
0.0897392
0.126446
0.0965705
0.0999703
0.0961587
0.121358
0.103136
0.118422
0.117844
0.101412
0.0991293
0.102356
0.128595
0.110984
0.0980912
0.110558
0.103151
0.121223
0.113325
0.099215
0.0937393
0.109659
0.112205
0.102474
0.10446
0.112342
0.136762
0.0882912
0.0793163
0.0932432
0.11093
0.110771
0.0782883
0.0942339
0.103132
0.0755933
0.129888
0.107856
0.117343
0.106502
0.11619
0.156018
0.101342
0.0907325
0.0806423
0.0862433
0.0983806
0.0916455
0.0776944
0.0825986
0.111322
0.115017
0.0819657
0.0890826
0.129262
0.102399
0.0771586
0.100065
0.0976833
0.110606
0.0976319
0.108317
0.113026
0.102549
0.0997564
0.0961963
0.0863678
0.0833906
0.0767477
0.0883495
0.129218
0.105195
0.0831841
0.109019
0.090956
0.108324
0.0838508
0.0847172
0.0902013
0.0952904
0.0918225
0.11464
0.10417
0.0980176
0.125158
0.104704
0.119407
0.112856
0.0860985
0.0803022
0.0968738
0.104623
0.127086
0.0865487
0.0856385
0.104383
0.0900027
0.109015
0.116488
0.102361
0.0970878
0.102986
0.0934492
0.100531
0.128105
0.0991767
0.0979314
0.123163
0.112334
0.0828895
0.100488
0.105765
0.10203
0.0970917
0.100312
0.100382
0.128316
0.100412
0.106294
0.107901
0.105198
0.0713043
0.110097
0.0930467
0.0883208
0.0989882
0.101907
0.114805
0.111857
0.0742307
0.106394
0.118919
0.113738
0.109991
0.101791
0.0976054
0.0967093
0.154604
0.10149
0.0967256
0.0931672
0.116452
0.123
0.114345
0.0838876
0.102702
0.102987
0.097364
0.0589072
0.0886982
0.11671
0.115379
0.111772
0.104695
0.124579
0.0921599
0.0998234
0.0964119
0.119913
0.0951716
0.102474
0.131523
0.0849675
0.115357
0.111092
0.131598
0.114448
0.0805594
0.107055
0.0688475
0.106477
0.0918266
0.104988
0.0947277
0.10623
0.121995
0.107702
0.0941748
0.0879458
0.0987291
0.111321
0.0747965
0.110262
0.104679
0.134953
0.0854262
0.0860542
0.0953109
0.0922009
0.107646
0.107199
0.113756
0.122983
0.0830106
0.106047
0.103508
0.11823
0.0939984
0.106531
0.0841606
0.0986009
0.116434
0.0808074
0.108319
0.106204
0.100699
0.111665
0.095222
0.102029
0.0899289
0.10296
0.0788064
0.105616
0.108422
0.107335
0.137809
0.0715777
0.101471
0.113802
0.0869706
0.0899477
0.0833675
0.10814
0.114764
0.0900134
0.0967099
0.0771762
0.12156
0.105002
0.090968
0.092298
0.105557
0.0916423
0.135479
0.0716272
0.0973995
0.0890098
0.114176
0.0946404
0.0879116
0.120806
0.128148
0.147012
0.098675
0.125424
0.0891124
0.0976615
0.111981
0.0984079
0.102769
0.11507
0.111855
0.12153
0.0877466
0.110337
0.142316
0.109745
0.0986111
0.121505
0.100821
0.106318
0.0653635
0.0907844
0.0944021
0.121065
0.0817449
0.119246
0.115184
0.092502
0.111519
0.110998
0.119319
0.146665
0.0992395
0.161727
0.0946778
0.0815031
0.0960455
0.101551
0.0825586
0.117345
0.0643083
0.113451
0.0965247
0.118288
0.121435
0.120778
0.117704
0.0725765
0.084399
0.117872
0.111577
0.100619
0.118041
0.123814
0.137372
0.095709
0.123008
0.114103
0.0866513
0.117842
0.0849558
0.0878698
0.102272
0.0990084
0.100174
0.0763964
0.0996558
0.108972
0.110457
0.0900568
0.097945
0.108326
0.0852507
0.107169
0.0641458
0.0791376
0.0803137
0.0841804
0.0965534
0.104345
0.120339
0.110857
0.117697
0.120778
0.0832732
0.110122
0.102229
0.0899554
0.101695
0.135456
0.107158
0.081055
0.0954657
0.112343
0.0936903
0.0991886
0.106702
0.108347
0.0790105
0.113702
0.11096
0.124987
0.0891477
0.107948
0.10125
0.103397
0.0876303
0.0813385
0.0832699
0.114774
0.118325
0.106368
0.134774
0.0955644
0.108011
0.092438
0.100402
0.0830839
0.0884384
0.102035
0.111221
0.105415
0.0995409
0.0943294
0.128036
0.123695
0.118073
0.100314
0.108802
0.0914249
0.103085
0.0921338
0.118052
0.106236
0.113954
0.111348
0.124831
0.129522
0.083666
0.101551
0.109314
0.116161
0.0982571
0.0971254
0.0999066
0.12788
0.0938854
0.104831
0.0758062
0.095347
0.0853402
0.0763825
0.100078
0.116708
0.0965708
0.105085
0.117945
0.0982137
0.0713097
0.128165
0.102766
0.163188
0.122665
0.110019
0.103868
0.0960504
0.089798
0.0977147
0.109115
0.0873103
0.0970881
0.122612
0.108346
0.0981424
0.104046
0.120959
0.0731448
0.100328
0.0895105
0.108475
0.108338
0.100137
0.118245
0.116142
0.0911329
0.106461
0.0935192
0.0761814
0.0878237
0.101872
0.0996246
0.0864403
0.119666
0.123653
0.11589
0.114132
0.0969367
0.0979854
0.0929767
0.105534
0.0855544
0.102217
0.130052
0.10261
0.129218
0.116
0.0946104
0.0991932
0.0875072
0.116899
0.102543
0.132915
0.0994974
0.0786014
0.121467
0.093668
0.0984484
0.0846615
0.121465
0.1247
0.110437
0.112918
0.108435
0.177134
0.0928186
0.0948277
0.105948
0.0849828
0.0715417
0.105999
0.0917966
0.0921006
0.116805
0.109384
0.0723756
0.106606
0.0848304
0.102038
0.0840045
0.129448
0.131274
0.128983
0.123247
0.0986306
0.111644
0.081277
0.0956711
0.0841322
0.0837788
0.117683
0.0754868
0.0776053
0.0861102
0.070229
0.112016
0.110857
0.0891304
0.0949595
0.0708661
0.0959558
0.0879812
0.0972428
0.110568
0.104595
0.100504
0.0861711
0.0870253
0.0790628
0.0757273
0.0901327
0.0824009
0.0915775
0.118827
0.130879
0.124976
0.102522
0.102792
0.0974341
0.0842383
0.104502
0.123385
0.144428
0.117588
0.113267
0.110579
0.0882634
0.0893848
0.102976
0.105725
0.0689005
0.120946
0.102306
0.111302
0.110613
0.128385
0.0799693
0.110952
0.0684866
0.100199
0.100408
0.117336
0.103773
0.102129
0.125143
0.102513
0.0889123
0.0699532
0.0834048
0.0925624
0.116735
0.132727
0.0928515
0.132444
0.117063
0.104563
0.0955484
0.089044
0.117181
0.100413
0.108778
0.0763132
0.112044
0.10498
0.117387
0.109866
0.101451
0.0875869
0.0852536
0.0826909
0.100777
0.0982262
0.122862
0.0977738
0.104794
0.108799
0.104464
0.121642
0.10734
0.106655
0.0865605
0.111079
0.0979176
0.12903
0.0928829
0.0882754
0.112575
0.103489
0.0724305
0.107792
0.114081
0.0872288
0.0899999
0.122047
0.122567
0.098624
0.0964086
0.0878105
0.0838717
0.108367
0.128765
0.105583
0.110056
0.123352
0.10062
0.120953
0.103923
0.101274
0.135086
0.116679
0.113121
0.105684
0.112219
0.101266
0.125467
0.118964
0.106799
0.139597
0.100845
0.0775764
0.119257
0.120242
0.129089
0.123777
0.0891593
0.142542
0.0997592
0.112524
0.12029
0.0975349
0.0981017
0.122908
0.123528
0.0911922
0.0770102
0.0887551
0.101032
0.0858338
0.0693006
0.0860957
0.0821384
0.0895227
0.09707
0.105863
0.0994841
0.0978581
0.0936557
0.121146
0.114874
0.089126
0.107064
0.0765122
0.124354
0.125577
0.115073
0.122321
0.119023
0.0821506
0.0999629
0.104391
0.143567
0.106721
0.0902301
0.0961926
0.153827
0.0773489
0.104395
0.0736692
0.092695
0.0757504
0.10164
0.126962
0.0923009
0.0873623
0.125581
0.099744
0.0862674
0.110005
0.113914
0.0836861
0.110165
0.105181
0.109264
0.102022
0.0982439
0.115714
0.105054
0.115118
0.0992525
0.0855126
0.15654
0.0867481
0.0971109
0.102593
0.0683482
0.129929
0.117112
0.110385
0.100724
0.0848045
0.103977
0.090818
0.145005
0.11268
0.0975993
0.0896161
0.0968937
0.118145
0.113704
0.0731731
0.119872
0.0783762
0.104602
0.0928538
0.0970537
0.116697
0.107028
0.120641
0.125831
0.0991107
0.0950152
0.1236
0.123811
0.0988983
0.110198
0.0939211
0.0948102
0.101176
0.0701816
0.0941262
0.0880062
0.0879382
0.113428
0.0974726
0.0810592
0.103446
0.0920467
0.0865165
0.0770148
0.089758
0.0940813
0.0994068
0.0707001
0.0943503
0.0839984
0.135212
0.0879461
0.0834065
0.103356
0.0904693
0.100318
0.0889928
0.106188
0.0942545
0.111322
0.0926518
0.111116
0.0946021
0.0857175
0.091012
0.121142
0.113296
0.087434
0.104451
0.139589
0.12077
0.0934169
0.0834329
0.0931928
0.110162
0.130674
0.128584
0.127658
0.0982715
0.12081
0.101706
0.115259
0.115279
0.117394
0.0899588
0.0922801
0.104906
0.0811745
0.10426
0.112467
0.0946059
0.113725
0.07377
0.0768154
0.0866161
0.0904505
0.10123
0.0978309
0.0978959
0.106474
0.101565
0.104356
0.0917139
0.106991
0.0920824
0.107133
0.111901
0.115355
0.0992396
0.109048
0.0711235
0.125692
0.0979203
0.101499
0.0894678
0.0919132
0.0833705
0.109713
0.122899
0.148071
0.101992
0.0925464
0.0800228
0.0966865
0.109375
0.106826
0.0992535
0.0968874
0.140465
0.099046
0.122617
0.104909
0.113399
0.132244
0.108199
0.12313
0.0969311
0.0939301
0.114412
0.113827
0.0927179
0.110333
0.0955786
0.107606
0.094419
0.0966398
0.10785
0.132206
0.114083
0.0683208
0.0750376
0.0934622
0.111612
0.0833379
0.115047
0.104649
0.105512
0.1045
0.0984165
0.101248
0.113972
0.109062
0.101881
0.112861
0.0887924
0.13502
0.126723
0.107967
0.144224
0.102977
0.131833
0.109906
0.0866925
0.144256
0.103718
0.119326
0.0842187
0.0944601
0.0961314
0.0997427
0.0988028
0.0925477
0.13008
0.114336
0.125619
0.0995115
0.126808
0.107139
0.101311
0.100108
0.117523
0.120713
0.106762
0.0813259
0.0953849
0.0923791
0.101897
0.109544
0.103256
0.11728
0.0945962
0.0794351
0.0805757
0.0657974
0.105494
0.098713
0.0962414
0.126283
0.135948
0.105868
0.0931467
0.0950333
0.100464
0.118118
0.0903933
0.109077
0.097502
0.065129
0.0994861
0.113142
0.122213
0.108647
0.0984116
0.12144
0.0958894
0.0947879
0.127235
0.11859
0.0813566
0.102128
0.103597
0.101959
0.114208
0.0938299
0.101512
0.109129
0.0783738
0.0962868
0.0804908
0.0816313
0.07895
0.121721
0.0678988
0.106359
0.0970771
0.106394
0.121309
0.101305
0.116692
0.113201
0.102528
0.0968467
0.0774343
0.114699
0.0825121
0.0993599
0.0950977
0.11275
0.099344
0.0933243
0.135782
0.131638
0.102191
0.0912177
0.122696
0.111544
0.103542
0.125429
0.132661
0.113451
0.116896
0.149451
0.119899
0.109756
0.123569
0.118442
0.103804
0.0923996
0.107717
0.108023
0.0861704
0.0935605
0.0973632
0.0983796
0.112167
0.114232
0.0935499
0.100833
0.0964071
0.113395
0.0940973
0.117374
0.116624
0.0975737
0.0893899
0.112622
0.132998
0.11274
0.0991672
0.0952581
0.104219
0.12084
0.106142
0.102001
0.115054
0.106065
0.126232
0.100708
0.109717
0.0822588
0.136775
0.084498
0.126421
0.103661
0.112247
0.0957662
0.110084
0.12124
0.109893
0.086017
0.0917101
0.11059
0.119917
0.122887
0.0850463
0.103957
0.124261
0.0843271
0.0952378
0.0886309
0.106676
0.101351
0.0913815
0.0895439
0.0939251
0.117417
0.116557
0.0966077
0.084455
0.105755
0.0910043
0.0936192
0.0873814
0.10092
0.0974025
0.0942133
0.0855965
0.0975891
0.102767
0.0819775
0.0800652
0.138014
0.0764794
0.0919324
0.108386
0.106872
0.0965416
0.107263
0.0740223
0.104849
0.0924005
0.0913114
0.0879948
0.0953785
0.0905104
0.103842
0.086206
0.108048
0.0861137
0.0957496
0.103477
0.0955361
0.120735
0.0783699
0.110424
0.103667
0.0843006
0.108196
0.0849165
0.0935547
0.0999316
0.120483
0.110112
0.119116
0.0939111
0.0919211
0.0937022
0.102904
0.0860196
0.0984377
0.0882194
0.128467
0.116519
0.113685
0.101706
0.0982807
0.111978
0.102109
0.106364
0.108306
0.112654
0.0903094
0.0922423
0.0744009
0.0769402
0.134447
0.0942538
0.109091
0.073365
0.11288
0.0963867
0.103333
0.116505
0.0900397
0.0998921
0.102584
0.0978386
0.077614
0.114651
0.105481
0.0870785
0.131411
0.103282
0.11555
0.101518
0.078287
0.122137
0.128083
0.115645
0.11614
0.112084
0.125562
0.119942
0.0864939
0.0859476
0.0978444
0.105507
0.0837453
0.0988518
0.117661
0.103462
0.0910577
0.0758724
0.100778
0.123322
0.104868
0.0748569
0.0911199
0.0835963
0.0912198
0.0708157
0.11054
0.111045
0.0743477
0.101863
0.0911533
0.123417
0.130816
0.0972625
0.0893513
0.0708499
0.0858413
0.0802857
0.0906364
0.053556
0.0816507
0.0996257
0.0983179
0.077411
0.111365
0.0951876
0.0738231
0.0831382
0.120524
0.0914087
0.142908
0.127255
0.0937612
0.118608
0.0843246
0.0877589
0.092386
0.0959808
0.102339
0.105108
0.114072
0.116129
0.116138
0.0997767
0.126889
0.116387
0.103513
0.118618
0.10085
0.118724
0.102815
0.121011
0.116468
0.143378
0.122117
0.101884
0.105233
0.135477
0.105688
0.107658
0.0978542
0.11429
0.135426
0.102442
0.114723
0.102534
0.0976024
0.102685
0.0928617
0.0772908
0.0801663
0.0968044
0.150251
0.0928769
0.0967593
0.0852006
0.0892394
0.0991856
0.095768
0.100971
0.0944724
0.0917804
0.0951897
0.0878543
0.0947301
0.10162
0.114024
0.116711
0.0941815
0.109854
0.135002
0.110561
0.107341
0.0931694
0.096506
0.106346
0.121001
0.101661
0.0979343
0.111454
0.0896665
0.0848968
0.098857
0.086101
0.0980265
0.122499
0.0893227
0.0883884
0.113869
0.0985167
0.127838
0.108499
0.0892299
0.102448
0.108405
0.0818669
0.0994011
0.0774938
0.0732158
0.0794904
0.0982849
0.1114
0.1208
0.0866183
0.129184
0.084088
0.105281
0.0950751
0.0790849
0.065039
0.114432
0.097643
0.119811
0.107029
0.0935912
0.0894023
0.110455
0.10124
0.0907181
0.0908676
0.126982
0.0886901
0.124493
0.129264
0.107432
0.100844
0.107753
0.148191
0.111114
0.0943851
0.114459
0.105944
0.0979518
0.121281
0.110049
0.101045
0.0690006
0.114538
0.086565
0.0988796
0.125959
0.111707
0.0997796
0.127848
0.10366
0.0909348
0.0965297
0.107369
0.0970692
0.108147
0.101728
0.109202
0.125211
0.105518
0.127986
0.112854
0.121742
0.115581
0.0997294
0.119597
0.0993394
0.104621
0.102805
0.115852
0.084483
0.0916918
0.0996262
0.108566
0.107832
0.0991407
0.109952
0.0861186
0.134798
0.114859
0.0845041
0.114634
0.098593
0.116615
0.12183
0.0882393
0.0941376
0.101857
0.0807312
0.121942
0.150421
0.107548
0.0940828
0.111686
0.086349
0.115411
0.118229
0.113086
0.118252
0.0981268
0.112428
0.0813123
0.0871609
0.0839621
0.131831
0.110806
0.0984652
0.0745548
0.103225
0.107809
0.119133
0.107878
0.0924699
0.104054
0.106401
0.121976
0.0924164
0.0993388
0.101008
0.113928
0.103553
0.107812
0.0805439
0.132048
0.116473
0.110183
0.101176
0.113277
0.0899593
0.0947385
0.0949674
0.115607
0.131909
0.108032
0.0941641
0.123249
0.103897
0.0989228
0.130617
0.109387
0.100149
0.11079
0.08289
0.131601
0.111399
0.107753
0.0754624
0.0990222
0.108553
0.101986
0.118215
0.0969782
0.0844919
0.0824283
0.107672
0.0921016
0.0898629
0.0977152
0.0865526
0.0977367
0.106967
0.135531
0.0973161
0.0664101
0.110713
0.088293
0.0947994
0.109793
0.09512
0.131546
0.107212
0.103
0.0965626
0.0973618
0.0945339
0.0945341
0.119361
0.11103
0.0972436
0.0706302
0.082722
0.0984255
0.0915292
0.0991441
0.124038
0.106798
0.128458
0.0979328
0.0715586
0.124306
0.122794
0.124619
0.114454
0.0815722
0.112854
0.110855
0.117393
0.111523
0.104281
0.106483
0.112405
0.0825083
0.105554
0.114772
0.0970425
0.121715
0.135046
0.118548
0.0971927
0.119728
0.119921
0.117362
0.0966234
0.139917
0.0718478
0.0924739
0.118503
0.123347
0.103973
0.132681
0.11303
0.115336
0.129476
0.115201
0.130785
0.100404
0.0929621
0.0951604
0.11863
0.095605
0.104017
0.105979
0.129457
0.105762
0.131823
0.0768448
0.0988678
0.102156
0.106026
0.0923542
0.127254
0.113625
0.109071
0.0881855
0.0883869
0.098501
0.113991
0.0763566
0.0970001
0.115349
0.0873077
0.0925609
0.108559
0.0881538
0.10849
0.0896399
0.0917824
0.104899
0.104442
0.0877137
0.0969812
0.108327
0.109919
0.111006
0.111614
0.107751
0.0898082
0.0894441
0.106167
0.072205
0.109152
0.107874
0.113516
0.109608
0.113558
0.0998886
0.126729
0.104805
0.121143
0.114353
0.124642
0.125158
0.107179
0.111962
0.0963107
0.0902332
0.111554
0.101455
0.0820336
0.104877
0.0877154
0.0899906
0.100021
0.119193
0.0976087
0.107572
0.09145
0.109111
0.0940756
0.078718
0.102376
0.106117
0.109671
0.122654
0.0801477
0.115981
0.12481
0.105579
0.0919672
0.119188
0.0974399
0.103529
0.0968938
0.11929
0.111968
0.105419
0.0889658
0.0997139
0.0986813
0.10508
0.0984592
0.0921841
0.0958451
0.102724
0.116238
0.0763948
0.108961
0.112389
0.0969349
0.119231
0.0974803
0.0959066
0.125553
0.0971316
0.103312
0.0732056
0.106606
0.0908792
0.0942476
0.0936027
0.118429
0.108501
0.106066
0.108948
0.087149
0.111373
0.0790207
0.105767
0.11916
0.102277
0.110187
0.115546
0.0950786
0.115441
0.103609
0.0889488
0.0973306
0.0898864
0.102863
0.110111
0.0798489
0.14667
0.104541
0.105937
0.0719159
0.0899248
0.0881075
0.0959351
0.0780927
0.067739
0.0793126
0.0760328
0.104247
0.103864
0.100443
0.0996278
0.0996073
0.104978
0.0930822
0.117292
0.143147
0.0764475
0.12552
0.101599
0.0916245
0.0603738
0.0858051
0.0903916
0.139677
0.149547
0.099392
0.112204
0.104502
0.0937846
0.0850711
0.107105
0.12623
0.105907
0.119857
0.0971503
0.141382
0.1129
0.101315
0.101276
0.0956508
0.110334
0.121546
0.114506
0.105078
0.0893188
0.0994104
0.0972306
0.0801194
0.112977
0.0911304
0.0886767
0.0944304
0.101583
0.0874238
0.10693
0.122002
0.101073
0.097034
0.0956913
0.0763789
0.0844082
0.104817
0.112092
0.0968691
0.0895395
0.0962597
0.120935
0.122376
0.10133
0.105973
0.105939
0.0834471
0.0889627
0.114237
0.115839
0.103191
0.125375
0.0912863
0.0970468
0.104805
0.0936581
0.0958999
0.0998768
0.0997219
0.0938675
0.11664
0.081727
0.108201
0.0889492
0.0985513
0.113842
0.115304
0.122443
0.0992772
0.0992983
0.12361
0.103264
0.0919533
0.0910661
0.107878
0.124979
0.116991
0.11061
0.0821549
0.110841
0.124825
0.124739
0.118112
0.107362
0.109146
0.120363
0.0573564
0.106035
0.119376
0.0938625
0.122644
0.107243
0.103842
0.115597
0.119352
0.0977052
0.102345
0.107424
0.0983364
0.104475
0.113501
0.111033
0.116643
0.0885221
0.112213
0.113197
0.113733
0.123875
0.1042
0.106012
0.0923915
0.143154
0.130662
0.100819
0.0838514
0.101226
0.133857
0.110413
0.101356
0.0769375
0.0886635
0.0906493
0.0817397
0.115962
0.12359
0.105844
0.105773
0.0974167
0.109159
0.111608
0.1043
0.0929736
0.0949171
0.0972728
0.101851
0.114361
0.119201
0.111988
0.103996
0.110471
0.107272
0.111939
0.102847
0.103514
0.11689
0.125567
0.117229
0.0956817
0.0885096
0.0981762
0.1015
0.103309
0.0983368
0.102927
0.129602
0.101389
0.11554
0.0874243
0.104761
0.100999
0.078926
0.102423
0.107183
0.0917897
0.125091
0.100275
0.138073
0.102905
0.0848404
0.0998463
0.115653
0.111112
0.111033
0.114802
0.0841997
0.116091
0.10409
0.110236
0.0985707
0.0943063
0.0861716
0.110246
0.0860067
0.0904134
0.0815427
0.0920513
0.0793697
0.122866
0.122565
0.113316
0.121614
0.103506
0.0893779
0.10256
0.108882
0.103636
0.129403
0.117091
0.0935018
0.0934212
0.096297
0.0758565
0.0892669
0.107263
0.108774
0.119331
0.0898784
0.100571
0.100173
0.128464
0.10624
0.127242
0.0952907
0.0761413
0.105694
0.107714
0.0850557
0.101867
0.107625
0.103907
0.08987
0.109043
0.110737
0.123067
0.13557
0.104054
0.122265
0.0904335
0.104789
0.106515
0.121532
0.111079
0.0960559
0.0935272
0.0968072
0.0809333
0.0909656
0.108235
0.125762
0.0965495
0.118011
0.0894319
0.0807952
0.0767504
0.0728715
0.0775252
0.125256
0.147952
0.111106
0.107049
0.098884
0.113151
0.0969817
0.110815
0.116442
0.0914779
0.0946092
0.0869627
0.0854784
0.087139
0.156988
0.128992
0.110557
0.121683
0.0920523
0.0994568
0.0916666
0.10541
0.0905734
0.118282
0.0865923
0.0937728
0.107876
0.0917027
0.105777
0.109203
0.104861
0.121055
0.111698
0.102862
0.115797
0.0983396
0.099479
0.0973091
0.138307
0.101016
0.111191
0.11388
0.079165
0.0984733
0.116035
0.0924467
0.146942
0.116378
0.121741
0.136903
0.0774721
0.112555
0.0949836
0.0794452
0.109048
0.104961
0.103767
0.11341
0.115399
0.126149
0.0798451
0.0830871
0.0817239
0.0913121
0.0841252
0.108157
0.0994644
0.109257
0.087394
0.100702
0.0900773
0.0971967
0.105905
0.103773
0.0785783
0.0946112
0.105187
0.112569
0.0953932
0.0864287
0.122372
0.107549
0.10406
0.124024
0.0979502
0.103618
0.0818604
0.108557
0.085205
0.0821104
0.0889845
0.116358
0.113266
0.0904316
0.0962876
0.0854133
0.0988861
0.0988748
0.084351
0.0879338
0.109196
0.0886681
0.108257
0.105692
0.154737
0.0853382
0.118027
0.100572
0.10907
0.106066
0.106951
0.082788
0.116546
0.0960963
0.113792
0.0813807
0.0912283
0.0876078
0.121899
0.0941803
0.123508
0.109734
0.119881
0.10796
0.0966846
0.0982526
0.0998768
0.0679167
0.101948
0.0827742
0.121018
0.101414
0.127698
0.111259
0.102189
0.103003
0.0979013
0.119098
0.107374
0.109369
0.116024
0.0956009
0.11692
0.0872674
0.0811145
0.0937554
0.0930464
0.0939901
0.0975535
0.0899608
0.114433
0.0715686
0.119973
0.105235
0.106277
0.0971042
0.0831215
0.111328
0.0801208
0.081369
0.109839
0.107491
0.0990474
0.101694
0.124643
0.101328
0.10113
0.0999867
0.116888
0.116874
0.114685
0.108842
0.114212
0.118439
0.129619
0.113655
0.101233
0.104565
0.0747332
0.11657
0.11311
0.108522
0.0784185
0.100297
0.0940079
0.113207
0.113984
0.10283
0.0897718
0.106531
0.100258
0.10412
0.0920728
0.0982678
0.145459
0.13678
0.113017
0.103926
0.100914
0.118337
0.0997294
0.0984959
0.100839
0.108351
0.0848276
0.111321
0.117882
0.128328
0.0968435
0.0989933
0.104762
0.096547
0.122944
0.106265
0.127289
0.122588
0.0970273
0.12573
0.103742
0.105186
0.118666
0.114792
0.112449
0.104036
0.082942
0.0826774
0.108202
0.104151
0.10716
0.0927154
0.152865
0.0915835
0.0866541
0.100169
0.111884
0.0903015
0.125693
0.130726
0.117406
0.0852289
0.0995759
0.0912805
0.113977
0.0958208
0.0978145
0.102019
0.103266
0.0968299
0.0887269
0.11011
0.102049
0.102884
0.105047
0.0897167
0.0931747
0.109306
0.109365
0.102133
0.0874768
0.108251
0.0909399
0.105987
0.0932561
0.0750174
0.108994
0.101413
0.124924
0.0882591
0.0688473
0.122567
0.130229
0.0798135
0.0920506
0.0808769
0.112343
0.106708
0.110693
0.0849844
0.0990829
0.111108
0.119949
0.0802509
0.10656
0.11889
0.083201
0.0876935
0.0969723
0.1045
0.106354
0.101769
0.114642
0.128681
0.0943166
0.0847178
0.10855
0.0994416
0.113624
0.0939872
0.122255
0.0803242
0.123775
0.125705
0.135528
0.120691
0.107886
0.104835
0.12817
0.108935
0.110668
0.11673
0.100154
0.0907426
0.102533
0.106898
0.133194
0.0909925
0.139357
0.0875332
0.104918
0.110044
0.100406
0.113227
0.103816
0.124319
0.0816349
0.149411
0.109376
0.107526
0.116614
0.0925147
0.127046
0.0996095
0.0992026
0.110009
0.0899274
0.109992
0.0928203
0.107814
0.113276
0.0977806
0.115384
0.132338
0.120297
0.106798
0.113859
0.11928
0.128516
0.11606
0.134022
0.131494
0.0946313
0.108791
0.0914097
0.111759
0.0845278
0.130754
0.112751
0.0643663
0.123007
0.12267
0.0913869
0.0903909
0.122656
0.125169
0.13095
0.123161
0.100197
0.120044
0.096572
0.12683
0.101726
0.136653
0.0681622
0.0733098
0.110321
0.0905747
0.129334
0.110217
0.102897
0.114664
0.101466
0.0911734
0.0992479
0.0894069
0.0932809
0.0992072
0.0624143
0.0781546
0.104066
0.093142
0.125567
0.124315
0.113231
0.115913
0.105441
0.0909671
0.10693
0.109509
0.093371
0.111118
0.114708
0.110331
0.130599
0.094555
0.128205
0.126554
0.0993498
0.111106
0.0847497
0.0945438
0.13195
0.0837488
0.102768
0.113682
0.0960401
0.0907198
0.0767962
0.0729225
0.095351
0.0920973
0.114199
0.0958612
0.0991138
0.109113
0.113956
0.0938132
0.108845
0.118384
0.0912229
0.121183
0.10961
0.123148
0.110663
0.0967024
0.0785958
0.102734
0.0950015
0.0875133
0.0856951
0.0843808
0.0754561
0.105475
0.0895872
0.108314
0.151309
0.119162
0.111723
0.132081
0.113169
0.0917836
0.1024
0.121504
0.109236
0.0796428
0.122596
0.119798
0.0870253
0.106229
0.0777587
0.113187
0.127171
0.0987806
0.0818017
0.106721
0.0963124
0.125907
0.0846386
0.0905598
0.0912326
0.112804
0.112921
0.105782
0.107275
0.0988701
0.0977946
0.105761
0.0778215
0.111373
0.113799
0.113254
0.0888741
0.146899
0.130432
0.102997
0.121643
0.108819
0.107486
0.0897174
0.116717
0.107393
0.117467
0.0993543
0.10279
0.0863504
0.107244
0.126447
0.0854596
0.120088
0.116443
0.0904408
0.124225
0.0803276
0.0982091
0.0991145
0.0917121
0.103944
0.100421
0.0919825
0.0900856
0.0923638
0.0947498
0.10846
0.107784
0.101398
0.10683
0.10308
0.102148
0.0787533
0.10814
0.0948013
0.133914
0.112209
0.104132
0.119709
0.0963273
0.0907239
0.084654
0.12735
0.100277
0.0943309
0.0938147
0.138318
0.100312
0.098043
0.10235
0.0841198
0.114655
0.0982503
0.1271
0.0924614
0.143715
0.106039
0.0904754
0.096735
0.103389
0.110026
0.113443
0.132399
0.112549
0.116328
0.117786
0.106658
0.0922775
0.120181
0.115627
0.15397
0.0751602
0.0932015
0.102525
0.103904
0.0711146
0.11768
0.0975049
0.0904774
0.104813
0.126866
0.121326
0.111868
0.107836
0.0878998
0.125631
0.110843
0.124303
0.109916
0.109738
0.118012
0.0994846
0.0970691
0.107598
0.111554
0.113059
0.108988
0.127225
0.077464
0.117426
0.0899977
0.106529
0.104308
0.107543
0.0857662
0.0984114
0.0867752
0.124269
0.110625
0.119692
0.0920499
0.108042
0.106573
0.0942095
0.117567
0.14577
0.113507
0.0961793
0.121241
0.0786557
0.109644
0.105992
0.1076
0.100883
0.0809666
0.0759496
0.0968717
0.124899
0.10491
0.103825
0.0984993
0.118506
0.0967007
0.0734831
0.114301
0.147124
0.133349
0.112109
0.127117
0.115493
0.119902
0.111947
0.133028
0.109114
0.123023
0.097129
0.0853479
0.105553
0.106221
0.0946239
0.124339
0.0961773
0.0929812
0.132106
0.0938967
0.131985
0.0952308
0.0523137
0.114485
0.0838325
0.106714
0.0890569
0.0804764
0.100529
0.106313
0.0868707
0.112169
0.110302
0.111625
0.0981494
0.0914566
0.121557
0.140245
0.0898635
0.0985463
0.104535
0.0797052
0.0863544
0.0938233
0.0987363
0.11064
0.14005
0.0969949
0.0969752
0.121153
0.119874
0.107727
0.10555
0.11761