/*--------------------------------*- C++ -*----------------------------------*\
| =========                 |                                                 |
| \\      /  F ield         | OpenFOAM: The Open Source CFD Toolbox           |
|  \\    /   O peration     | Version:  2.4.0-MNF                             |
|   \\  /    A nd           | Web:      www.OpenFOAM.org                      |
|    \\/     M anipulation  |                                                 |
\*---------------------------------------------------------------------------*/
FoamFile
{
    version     2.0;
    format      ascii;
    class       volScalarField;
    location    "5e-05";
    object      surfaceShearStress_Ar;
}
// * * * * * * * * * * * * * * * * * * * * * * * * * * * * * * * * * * * * * //

dimensions      [1 -1 -2 0 0 0 0];

internalField   uniform 0;

boundaryField
{
    flow
    {
        type            calculated;
        value           uniform 0;
    }
    entrance
    {
        type            symmetry;
    }
    walls
    {
        type            calculated;
        value           nonuniform List<scalar> 
3600
(
1.24276
2.02304
1.82179
1.24173
1.20435
1.18801
2.02962
1.85885
0.891737
1.17839
1.96219
1.14448
1.44951
1.4914
0.602524
0.920071
1.25092
1.62155
1.59543
1.4501
1.27473
1.27792
1.40478
1.46975
1.07679
1.32837
1.10236
1.38795
1.82508
1.28331
1.22523
1.88259
1.31875
1.34169
1.49202
0.764006
1.47047
1.15113
1.45067
1.66323
1.19932
1.41066
1.33655
1.03822
2.06039
1.19453
1.43171
1.46984
1.79441
1.35033
1.10086
1.62134
1.93766
1.55314
1.07972
1.82987
1.5387
1.45499
1.61559
1.82405
1.11696
0.763812
1.45173
1.1721
1.66125
1.44507
1.50533
0.983856
1.51454
1.33733
1.56069
1.56964
1.17203
1.71571
1.71367
1.49296
1.60331
1.38637
0.473599
1.34231
1.00758
1.55438
1.42703
1.15679
0.91117
1.57581
1.20093
1.21311
1.42892
1.05539
1.4941
0.76464
1.02911
1.91773
1.48478
1.67143
2.07217
1.83592
0.921646
1.54756
1.10908
1.20941
1.41254
1.86023
1.61099
1.37644
1.24663
1.03621
0.992438
1.55811
1.26673
1.93205
1.27977
1.90235
1.7646
1.11271
1.74897
1.26669
0.884047
1.58596
1.62058
1.5694
2.07773
1.04755
1.74615
1.14287
1.11988
1.2621
1.36655
0.987241
1.41602
1.39053
1.40506
1.2069
1.5034
1.98029
0.899792
1.3071
1.61982
1.75917
1.35034
1.41073
0.976766
1.4481
1.22184
1.42634
1.15841
1.64315
1.28462
1.34009
1.21202
1.31278
1.2017
1.39974
1.47434
1.02009
1.36962
1.8017
1.07073
1.84203
1.156
0.9661
0.992213
1.88766
1.51654
1.07073
1.29579
1.79024
1.35335
1.22046
1.36209
1.95535
1.14075
1.32187
1.56895
1.16099
1.6508
1.3027
1.06862
0.992963
1.35818
1.94866
1.12113
1.20152
0.856445
0.905861
1.26863
1.12311
1.22471
0.938966
1.38756
1.11472
1.55615
1.04463
0.995117
1.21923
1.29019
1.43485
1.76113
1.39723
1.4752
1.33124
1.15997
1.62787
1.47589
1.25681
1.07439
1.37863
1.53516
1.40135
2.03433
0.964271
1.60023
1.48467
1.25406
1.30095
0.992597
2.40219
1.96753
0.979885
1.84569
1.56394
1.17509
1.10812
1.38814
1.4439
1.27094
1.03164
1.34905
1.19044
2.16523
1.36258
1.2181
1.37287
0.933867
1.70311
1.26825
1.17126
1.15259
1.32613
1.32504
1.61968
1.66919
1.09899
1.23367
1.4433
1.1685
0.874476
0.982167
0.905749
1.4614
1.40659
0.960659
1.41049
1.46652
1.38996
1.39175
1.26925
1.76411
1.34327
1.77162
0.857024
1.5391
1.85586
1.4869
1.21511
1.1534
1.30083
1.61793
1.47397
1.31291
1.67037
2.08284
1.7007
1.11668
1.56222
1.26745
1.22318
0.831222
1.03753
1.34139
1.02229
1.2615
1.56733
0.937861
0.930496
0.95453
1.20425
0.628469
1.05174
1.63344
1.25812
1.42142
1.73479
0.600356
0.684035
0.792708
1.1373
1.54702
1.36459
1.42205
0.93288
1.53062
1.18499
0.987986
1.28186
1.34061
1.28705
1.2393
1.44551
1.27151
0.917166
1.35222
1.72475
1.71818
1.16696
1.37457
1.36471
1.24874
1.20673
0.736595
1.22574
0.945911
1.30672
1.15917
2.15913
1.51642
1.4485
1.00425
1.78149
1.48285
1.40974
1.4577
1.92858
1.13963
1.3876
1.41546
1.86688
1.23132
1.4868
1.10564
1.47797
1.08899
1.63144
1.34773
1.45176
0.824508
1.37174
1.1482
1.55121
1.04677
1.38084
1.3034
1.09532
2.05387
1.25427
1.39814
1.69781
1.38999
0.857336
1.01312
1.29698
1.84223
1.09988
1.12081
1.19915
0.834409
1.34699
1.18899
1.77549
1.41921
1.05274
1.70518
1.85615
1.33728
1.44258
1.14428
1.69699
0.888757
1.24012
1.07805
1.08894
0.932549
2.15534
1.57765
0.744311
1.35316
1.05507
1.37691
1.01346
1.11109
1.32399
1.58839
1.52355
1.53805
1.36108
0.54897
1.07808
0.944226
1.19164
1.31761
1.06743
0.861192
1.30634
0.810874
1.86672
1.20058
1.28587
0.92013
1.42485
1.07423
1.45346
1.28187
1.20971
1.20451
0.867255
1.43689
1.18105
1.21212
1.2321
1.50401
1.41548
1.10771
1.40326
1.26853
1.46055
1.36744
1.44451
0.824081
1.32023
1.18654
1.46045
1.24479
1.16023
0.941452
0.71755
1.42373
1.10621
1.11291
1.44008
1.28033
0.766729
0.996529
1.38267
1.56207
1.87564
1.47745
1.05174
1.43148
1.51052
1.75837
1.44452
1.33961
1.63674
1.30262
1.26967
1.99067
1.52628
1.31945
1.03162
1.66458
1.01349
1.53993
0.64503
1.15689
1.33971
1.54491
0.800128
0.860128
0.896762
1.06954
1.64652
1.14594
1.23201
0.476413
1.6355
1.17308
1.41912
1.03597
1.1437
1.03961
1.29766
0.952028
1.15656
0.99795
1.31498
1.36075
1.10514
1.31968
0.730939
1.41424
1.47062
1.23157
1.53103
1.08729
1.1494
1.51415
0.444531
0.971873
1.20763
0.678833
1.51762
1.67178
0.831583
1.03277
1.40274
1.54122
2.22522
1.30117
1.20065
1.32896
2.05041
1.9637
1.59512
1.65911
1.69809
1.24869
1.06376
1.3783
1.95871
1.0226
1.49898
1.37314
1.21137
1.16366
1.36674
1.51168
1.9916
1.34953
0.801411
1.26478
1.53092
1.45432
1.55078
0.931846
1.21037
1.25591
1.09816
0.835133
1.51361
1.72024
1.11764
0.926237
1.25578
1.51867
0.988165
1.12862
0.842563
1.1695
1.45103
1.14728
1.05762
0.941483
0.865856
0.949801
1.56883
1.86533
1.61028
0.718255
1.09556
0.6723
1.48001
1.20102
0.937116
1.49263
1.42203
1.31765
1.51104
1.58772
1.17458
1.44919
1.43134
1.42885
0.937249
1.54291
1.34266
0.908925
1.45417
0.790562
1.29795
1.72836
1.65535
2.03331
0.807584
1.34653
0.96628
1.25902
1.15984
1.11085
0.753062
1.2259
0.799033
1.09979
1.03449
1.57759
1.06461
1.10156
1.24258
1.08336
1.32249
1.47706
0.997667
1.52964
1.42439
1.55546
1.30643
1.06722
1.43739
1.41616
1.58199
0.981417
1.10624
1.11323
0.564308
1.20632
1.34718
1.10384
1.66738
1.47229
1.8557
1.3743
1.60655
0.992501
1.01812
1.1501
0.839101
1.33752
1.11404
0.860704
1.05954
1.21244
0.789487
1.1133
1.50088
1.09698
0.813281
1.25326
1.44982
1.6871
1.47921
1.20636
1.71618
1.56789
1.02159
0.894932
1.75879
1.5582
1.26258
0.753091
1.36841
1.29819
1.4526
1.23648
1.57474
0.825516
1.43363
1.40092
0.911957
1.34117
0.946774
1.19849
1.44729
1.05379
1.40773
1.4472
1.79145
1.28345
1.27137
0.880206
1.65668
2.05156
1.37434
1.30338
1.52455
1.10496
1.06113
1.17427
1.10114
1.21403
1.41487
1.23646
0.593246
1.54518
0.938739
1.02315
1.02206
1.68501
0.847079
0.887376
1.27612
1.38149
1.02712
1.26725
1.49317
1.97806
1.55519
0.929563
1.4842
1.0919
1.21719
0.780491
1.79001
1.37593
1.06451
1.56799
1.53652
1.53978
1.10109
0.993998
1.14958
1.54322
1.61708
1.4163
1.2795
0.685414
1.33749
0.958381
1.376
1.00376
1.61932
0.686232
1.03331
1.37053
1.39595
1.17145
1.31938
0.982934
1.45659
1.59442
1.55325
1.18216
1.37869
1.03318
1.46182
0.779029
1.21884
1.32477
1.11228
1.27109
1.51803
1.40399
1.34533
0.982904
1.63157
0.832127
0.763327
0.743786
1.17562
1.357
0.786725
1.62095
1.38628
1.4422
0.522768
1.57648
1.37882
0.774648
1.2321
1.19517
1.02466
1.19302
1.62652
1.43135
0.875214
1.31067
1.77355
1.12695
1.20025
1.33996
1.09708
1.16599
1.53875
1.44411
0.98032
1.14747
1.27629
1.62948
1.82656
1.4262
1.3416
0.92749
0.923285
1.31855
1.17599
1.44267
1.19267
1.583
1.76252
1.22923
1.39596
1.50248
1.35214
1.11069
0.88926
1.48448
0.96565
1.28538
1.16864
2.00819
0.756071
0.584976
1.379
1.10058
1.03283
1.38779
0.806262
1.82779
1.07926
1.08705
1.02713
1.10089
1.1636
1.62952
0.613232
1.05989
1.25856
1.73498
1.14214
1.20355
1.0199
1.00913
1.46328
1.1266
1.81373
1.46566
1.35521
1.34425
1.59612
1.43603
0.542421
1.134
1.89415
1.47313
0.8318
1.77873
1.17602
1.49184
1.51741
1.28753
1.74938
1.30798
1.46578
1.00516
1.33969
1.24289
0.902212
1.39104
1.19115
0.998077
1.44128
1.36693
1.31713
1.02024
1.2475
1.36677
0.799263
0.886808
1.3608
1.42176
0.846495
1.09412
0.986418
0.907599
1.26966
1.12293
1.09116
1.59968
1.63595
1.30475
1.34068
1.0376
1.34693
1.80927
1.41742
1.57099
0.930662
1.34019
1.42194
0.970882
1.50357
1.18
1.83494
1.38471
1.44927
1.12826
1.35372
1.1654
0.83381
0.979053
1.29786
1.0115
1.12773
1.58179
1.35612
0.932083
1.46013
1.36829
1.37408
1.05058
1.19385
0.548449
0.920298
0.826917
1.46375
0.677853
1.2924
1.65827
1.30736
1.45699
1.26078
1.50464
1.39734
1.32713
1.43536
0.750686
0.774385
1.05719
1.21266
1.32606
0.800607
1.21586
1.85829
1.1727
1.15129
1.24311
1.04179
0.9402
0.708402
1.42992
1.19949
1.80422
1.08854
1.5146
1.16217
1.34837
1.80423
1.09717
1.50962
1.61017
2.27529
1.10998
1.32782
1.25423
1.01373
1.59539
1.01907
1.58726
1.35412
1.55434
1.22868
1.15045
1.44496
1.14756
1.08404
1.17944
1.53299
0.974635
1.32964
1.0639
1.01988
1.5348
1.6754
1.42039
1.61413
1.24779
1.32121
1.09741
1.10425
1.51353
1.53976
1.25071
1.10715
0.635155
1.30227
1.03741
1.29487
1.77605
1.60555
0.953187
1.6341
0.829701
1.19604
1.06713
0.659816
1.2536
1.57133
1.55239
0.961421
1.4461
1.20078
1.5595
1.92513
1.47815
1.20014
1.17496
1.15819
0.875513
1.16484
1.47027
1.24809
1.3279
1.55077
1.32406
1.60373
1.17814
1.38633
1.06529
1.5718
0.379963
1.18027
1.13815
0.873169
1.02487
1.44959
1.61976
1.58115
1.69
1.42222
1.18698
1.49307
1.09075
2.06954
1.04852
1.37717
1.82308
1.70735
1.04626
0.800982
1.22636
1.44229
1.5384
0.773841
1.43055
1.27714
1.02653
1.17054
1.37327
1.36515
1.21436
1.22167
1.15647
1.26999
1.13457
1.50048
1.12858
0.979018
1.5694
1.47458
1.61148
1.27794
1.59123
1.22112
1.30615
0.714359
1.15343
1.29771
1.36121
1.15068
1.53922
0.750402
1.32725
1.51401
0.969685
1.55058
1.39742
0.684847
1.5082
1.33773
0.879813
1.01303
1.69596
1.1739
2.02838
1.53282
1.32796
0.892822
0.965907
0.67178
1.40401
1.47933
0.687203
1.12923
1.6816
1.16228
0.998205
1.23983
1.65771
1.3118
0.637008
0.556717
1.05109
0.802097
1.18968
1.43214
0.971994
1.14288
1.30522
1.58034
0.708835
1.21969
1.27851
1.21458
1.55617
1.10686
1.02096
0.944805
1.37576
1.05247
1.38694
1.20591
1.73966
0.956868
1.06211
1.57931
1.50274
1.35404
0.992399
1.24255
1.52671
1.70701
1.67977
1.44764
1.01963
1.32028
1.27783
2.02303
1.37729
1.19811
0.991114
1.62663
2.18154
0.812314
1.22757
1.72845
1.35092
1.12769
1.14936
1.05339
1.15085
1.16172
0.992783
1.19681
1.73162
1.0665
1.16892
1.20778
0.88379
1.16352
0.886445
1.22819
1.42774
1.21305
0.911723
1.4406
1.55221
1.60407
1.14805
1.41848
1.26237
1.28115
1.16511
1.1518
1.23973
1.53913
0.850756
1.37693
0.632422
1.20111
0.962359
1.61338
1.18207
1.98994
1.65403
2.01021
1.07758
1.12493
1.66527
1.46812
1.25503
1.26049
1.24168
0.958091
1.30784
1.03947
1.31067
0.823404
1.04377
1.87446
0.329052
1.30424
1.50389
1.07812
1.51498
1.83568
1.31733
0.666272
1.38192
1.65171
1.0146
1.63773
1.9226
1.31814
1.44948
1.43323
0.918416
1.17606
1.3272
1.52614
1.7043
0.989335
1.30428
1.1112
1.0188
1.1492
1.00076
1.61591
1.11349
1.63361
1.70863
1.3583
1.32542
0.91746
1.51951
0.913248
1.17393
1.04066
1.13836
1.03028
1.18174
1.23442
1.5981
1.08421
1.05538
1.45668
1.58385
1.31009
1.18262
1.13772
0.834026
1.29336
1.24077
1.34762
1.66339
1.4144
1.20523
1.38349
1.72829
0.897074
1.02029
0.951539
1.09362
1.21308
1.24644
1.41987
0.992367
1.02208
1.00367
1.24188
1.25398
1.44414
1.0418
0.864557
0.768074
1.14443
1.41153
1.24767
0.872322
1.4111
1.03513
1.24886
1.13965
1.05389
1.49609
1.00187
1.15973
0.893942
1.1142
1.50753
1.19357
1.69543
1.22513
1.42934
1.23041
0.919865
1.30875
1.09304
1.34902
1.04943
1.27694
1.23061
0.979831
2.07225
1.18964
1.40357
1.41229
1.46922
0.626089
1.21001
1.0811
1.10112
1.24349
1.34035
1.36365
1.05469
0.819897
1.57938
0.9682
1.76254
1.10665
1.16435
1.70799
0.776489
1.71974
1.49356
1.41351
1.27251
0.712048
1.28107
1.05919
1.11627
1.52057
1.22043
1.123
0.847188
1.30532
0.757747
1.30057
1.20532
1.59638
1.53809
1.23554
0.87624
0.443877
1.04408
1.34833
1.81612
1.3133
1.5135
1.29356
0.841597
0.994895
1.13048
1.62673
1.38979
1.18739
1.69283
1.65344
1.23
1.36138
1.73569
1.23058
1.37213
1.38145
0.988695
1.95878
0.867188
0.757758
1.37716
1.50622
0.994411
1.65474
1.53507
1.19101
1.70367
1.40203
1.21254
1.02268
1.15398
0.739253
1.27397
0.856548
0.880592
1.42923
1.10451
0.852815
1.44821
1.10426
1.30046
1.1892
1.24554
1.33667
1.31158
1.46356
1.19691
0.912347
1.14736
1.03666
1.46443
1.38756
1.28502
0.856333
1.20675
0.894704
0.620063
0.96438
1.36016
1.33125
1.14089
1.30587
1.06278
1.35671
0.993408
1.65807
2.24484
1.38881
1.58761
1.25829
1.09555
1.16015
1.36839
1.27009
1.73539
1.36386
1.21621
1.51898
0.996497
1.22335
1.00052
1.46646
1.21613
1.43915
1.20888
1.28426
1.17263
0.955096
1.46171
1.53689
1.50537
0.616452
1.62593
1.35136
0.581525
1.67865
1.30901
0.992347
1.5208
0.740146
1.6148
1.0105
1.1676
0.526649
1.31451
0.699295
1.63792
1.0641
1.6152
1.96298
1.07922
1.27948
1.4922
1.00527
0.983759
1.83528
1.59929
1.08016
1.18907
1.33328
0.821123
1.37744
0.386246
1.38012
1.40456
0.942232
0.909025
1.05867
1.07194
1.43859
1.91525
0.910506
0.817142
1.22376
1.38041
0.859247
1.28023
1.40937
1.16369
1.21081
1.18098
1.39635
1.68052
1.51691
1.36122
1.43621
1.08709
1.07935
1.44195
1.46503
1.88586
1.05745
1.47296
0.863355
0.892199
1.07734
1.35178
1.17134
1.01686
1.19873
1.25694
1.24835
1.6015
1.07291
1.14519
1.39732
1.59215
0.951827
1.11419
1.63892
1.74544
1.5521
1.76449
1.23218
1.08764
1.02122
0.783582
1.5558
1.50477
1.0576
1.40068
1.3784
1.11524
1.25994
1.12556
1.19146
1.71789
1.09211
1.26753
0.978469
1.14647
1.00274
1.30832
1.36007
1.46788
0.780176
1.31314
1.21999
1.16975
1.11509
1.5853
1.27793
1.02915
0.883214
1.47301
1.60332
1.19867
1.36723
1.37958
1.11297
0.721922
1.15456
0.960089
1.27132
1.25237
1.43808
1.87923
1.33862
1.38227
1.19976
1.05967
1.393
0.999943
1.79458
1.03368
1.06627
1.17361
1.30862
0.93608
1.1888
1.31057
1.54046
1.21211
1.41664
1.86365
1.22502
1.22742
0.889039
1.12648
1.36441
1.82664
1.04536
1.18639
0.888374
1.27991
0.86996
1.26282
0.639953
1.18649
1.08272
1.31389
0.703947
1.41152
1.48579
1.57056
1.91783
0.981419
1.2192
1.22144
0.852194
0.822808
1.46398
1.43981
1.25548
1.52812
1.16427
1.03586
1.08233
1.6096
1.37576
1.42497
0.956784
0.910585
1.05294
1.15852
0.975161
1.49125
1.20497
0.623689
1.41882
1.19529
1.48162
1.39694
0.930241
1.26574
1.22686
1.57941
1.36847
0.884578
1.68096
1.45005
1.07413
1.32462
0.964625
1.6441
0.990986
1.13509
1.17308
1.24063
0.885726
1.32991
1.18761
1.79128
1.88894
1.40296
1.41608
1.00775
0.734717
0.82703
1.20546
0.836763
1.34535
1.13668
1.21083
1.36364
1.32011
1.51912
1.71898
0.828435
0.944945
0.418167
1.02441
1.57589
1.5163
1.32502
1.65594
1.20422
1.09171
1.35859
0.812072
1.03325
1.61246
1.45032
1.07108
1.71662
1.35479
1.67704
0.827156
1.26187
0.777807
0.745054
1.02817
1.34113
1.42152
1.15515
0.767741
0.729681
1.12913
1.76385
0.995166
1.46033
1.0059
1.74291
1.55932
1.30532
0.890162
1.45926
1.15695
1.00021
1.17478
1.40166
1.36288
1.00535
1.29277
0.834801
1.50161
0.902422
0.915913
1.2251
1.3801
1.33289
1.50962
1.14804
1.37089
2.05347
1.12762
1.68938
0.800156
1.63821
1.28087
1.01446
1.43881
0.746824
1.34286
1.48009
1.54896
1.08429
1.45298
1.09467
1.12421
1.06612
0.802135
1.1342
1.21588
0.86594
1.09813
1.08867
0.619218
1.38717
1.27948
1.32363
1.25358
1.35591
0.945608
1.46628
1.12606
1.00735
1.29947
1.22335
1.10463
1.2793
0.917015
0.715016
1.0218
1.75626
1.24331
0.928453
0.961649
0.996901
1.90248
0.695486
1.59293
1.01062
1.7047
1.20957
1.22367
1.53617
1.13901
0.979436
1.04878
1.94536
1.21097
1.01431
1.04208
0.992856
1.2437
1.04248
1.42845
1.22039
1.3481
1.30728
2.19456
0.819994
1.45891
1.02323
1.20386
1.40013
1.30909
1.05165
0.611287
1.6829
0.981484
1.13139
1.25751
1.72007
1.73039
0.983711
0.891955
1.31345
1.43973
1.14539
1.79556
0.941273
1.59485
1.22133
1.21998
0.855009
0.910287
1.07054
0.719669
2.24976
1.14746
1.23718
1.12395
1.16263
1.43879
1.68334
1.3273
0.970533
1.64132
1.09949
1.53681
1.56777
1.45459
1.54668
1.47668
0.911817
1.28581
1.05298
1.10118
1.47734
1.19036
1.6702
1.3536
1.74286
1.00442
1.16928
1.59961
1.08521
1.17758
1.38264
1.06713
1.40136
1.39395
1.54523
1.43889
1.66864
1.58785
1.3641
1.09918
0.929446
1.55277
1.31855
0.886525
1.34563
1.90803
1.11785
1.18252
1.40403
1.21985
1.06135
1.29096
1.33636
0.6345
1.7131
1.03997
1.19699
1.39812
0.793966
1.64085
1.27274
1.17964
1.29896
1.63572
0.931362
1.30061
1.82289
1.46135
1.43954
1.34139
1.65034
1.14978
1.02517
2.0326
1.42071
1.11742
1.63511
1.26664
1.43342
1.71732
1.37137
1.07147
1.09616
0.836368
1.35584
1.47184
1.46529
1.65332
1.35358
0.898601
1.83298
1.46268
1.38466
1.53569
1.57917
0.877044
0.865887
1.51321
1.50862
1.30567
1.37965
1.30834
1.27604
1.62484
1.7036
1.5671
1.12705
1.49308
0.947444
1.77803
1.76469
1.51927
1.51297
1.5566
1.38134
1.61748
1.03213
1.643
1.32227
1.66379
1.06496
1.3854
1.24744
1.55396
1.22392
1.36451
1.48679
1.24831
1.35684
1.26579
1.73963
1.40886
1.36819
2.09316
1.27524
1.12831
0.992701
1.42415
1.22241
1.38818
1.52931
1.72747
0.968409
1.55343
1.06369
1.40747
1.70406
1.26969
1.49188
1.48598
1.45864
1.08004
1.08051
0.931736
1.22199
1.20847
0.765897
1.80947
1.60588
1.55691
1.62425
1.61469
1.24226
1.28333
1.23641
1.00916
0.924949
1.30953
1.32374
1.58716
1.15611
1.06996
1.25478
0.974205
1.21089
0.963546
0.898571
1.01723
1.69785
1.33241
1.14131
1.6678
1.79391
1.32043
1.20287
1.72856
1.6099
1.19173
1.48328
1.55964
1.2366
0.796217
2.14374
1.32362
1.48883
1.50308
1.75264
1.02989
1.19607
1.30104
1.16571
1.56732
0.876685
0.920323
1.22598
1.44821
1.60692
1.34916
1.31287
0.578152
0.602808
0.708292
1.45638
1.45109
1.76291
1.43307
1.40286
0.691075
1.3362
1.16436
1.33467
1.72382
1.09944
1.41721
1.03253
1.09627
1.39151
1.78131
1.21578
1.19007
1.63181
1.23872
1.79526
1.53658
1.71363
1.31266
1.72821
1.46411
2.00736
0.921749
1.09053
0.838615
1.21468
1.11414
0.897014
1.33993
1.64851
1.35129
1.45691
1.56455
1.54021
1.07064
1.01179
0.950118
1.27938
1.13129
0.990077
1.71249
1.05323
1.66497
1.3997
1.33091
0.99485
1.20063
1.34777
2.16708
1.39978
1.24544
1.53179
1.21101
1.09486
1.06312
1.20863
0.95709
1.08172
1.2234
0.98143
1.18632
1.3019
1.80332
1.413
1.012
1.27006
2.1122
1.82158
1.34613
1.18663
1.41069
1.47577
1.28087
0.998806
1.45265
1.04158
1.49999
1.30067
1.51406
1.88689
0.985736
0.908998
1.42599
1.1051
1.18126
1.67315
0.921339
1.66036
1.57248
1.54844
1.91956
1.84457
0.9094
1.04706
1.29873
0.822476
1.12677
1.53238
1.26488
1.04851
1.19545
1.06978
0.971849
1.00784
1.07033
1.17351
0.912294
1.16841
1.27683
1.52678
1.54704
2.08378
1.08108
1.02686
0.574475
1.18127
1.034
1.9157
1.13117
0.744251
1.34326
1.25004
1.00364
1.38455
1.27713
1.50729
1.25557
1.01752
0.888729
1.3678
1.70378
1.36659
1.28059
1.7496
0.857962
0.883629
0.780078
1.134
1.11837
0.801765
1.30069
0.747221
1.43872
1.16154
1.69662
1.16113
1.52508
1.16072
1.37815
1.43423
1.16586
1.1674
1.76167
1.45398
0.799222
1.26307
1.11095
2.17695
1.39007
0.744934
0.945107
1.2535
0.936702
1.1318
1.26726
1.12007
1.15305
1.48276
1.72248
0.673732
1.34637
1.47961
0.596967
0.999928
1.652
1.09361
0.662069
1.51771
1.66136
1.07371
1.15336
1.185
1.15508
0.863303
1.00652
1.0196
1.46306
1.15974
1.21517
1.58694
0.439025
1.0586
1.71283
1.41133
1.30771
1.20777
1.54098
0.797955
0.924186
1.35661
1.09259
0.92121
1.0253
1.09433
1.02477
1.34737
1.03238
0.898285
1.19331
1.53201
1.4294
0.754704
1.56841
1.55125
1.06574
0.930083
1.25933
1.30734
1.58338
1.47236
1.14731
1.51345
1.63792
1.15238
1.23348
1.50697
0.877699
1.47229
1.7286
2.05505
1.38714
1.19085
1.01205
1.33705
1.04709
1.34981
1.76469
1.52801
1.33967
1.66849
0.925687
1.363
0.980226
1.33591
1.11751
1.2705
1.25108
1.51614
0.849585
1.29194
0.88313
1.07155
1.35597
1.18372
1.19101
1.45054
1.06994
0.800263
1.42251
0.843898
1.21078
1.09677
1.27771
0.983287
1.03667
1.27018
1.32938
1.05277
1.20714
1.56072
1.34934
0.929374
1.42393
1.14948
1.06087
1.32616
1.25816
1.42088
1.47261
1.60605
0.913856
1.34322
1.31426
1.53891
1.19917
1.01254
0.960334
1.22143
1.17556
0.991403
1.15138
1.21034
1.22187
1.49992
0.992142
1.62556
1.18959
1.09567
0.697856
0.661035
1.22202
1.27751
1.72203
1.47509
1.16913
1.317
1.23803
1.48928
1.15368
1.00689
1.54819
1.02971
1.14136
1.5718
1.79622
1.19861
1.35501
1.40215
1.26462
1.03148
1.50659
1.36801
1.32967
1.67983
0.854847
1.5037
1.44033
1.28857
1.50136
1.14895
1.25115
1.59741
1.10346
0.935481
1.18797
1.6281
1.41074
1.40901
1.5358
1.20514
1.06884
0.891168
1.09551
1.3659
1.46448
1.07379
1.25422
0.813604
1.34967
1.39526
1.52706
1.13858
0.683469
1.34596
1.79612
1.27329
1.48212
1.14824
1.78041
1.24506
1.1639
0.893861
1.26005
0.929193
1.07888
1.40071
1.16523
1.13962
1.30763
0.849093
1.03796
1.21484
1.26111
1.29334
1.26769
1.16616
1.07221
1.02555
1.24117
0.982279
1.0815
1.65403
1.28699
1.33503
1.61543
1.15787
1.26922
1.08217
1.14639
1.52184
1.26774
1.28556
1.19338
1.07886
1.67673
1.18182
1.1911
0.952928
1.65001
1.23607
1.11568
1.82256
1.36587
1.46658
1.44294
1.01427
1.47772
1.16858
0.983572
0.979788
1.31536
0.802249
0.929204
1.24073
1.81466
1.43917
0.967689
1.40311
0.932129
1.07873
1.35126
1.59494
1.35235
1.62554
1.29724
1.50686
1.23817
1.55203
1.41831
1.14692
0.964847
2.11269
1.71927
1.15102
1.48979
1.11509
1.32461
1.35533
1.10964
1.41939
0.841596
1.26649
1.76224
0.639275
1.07654
1.74137
1.49664
0.802719
1.06645
1.41724
1.06392
0.806822
1.4368
1.5496
1.38601
1.02801
0.701284
1.12802
0.849307
0.93993
0.441936
1.31562
1.25605
1.3716
1.2049
1.42222
1.71299
1.14967
1.38783
0.864457
1.46791
0.945648
1.33901
1.295
1.31901
1.1621
1.25366
0.875099
1.0343
0.736193
0.881212
1.46322
1.21576
1.4354
1.18178
1.0819
1.23837
1.08747
1.31362
1.19068
1.28587
0.752248
1.19582
1.40438
1.35678
1.23275
0.885028
1.24789
1.11206
1.34514
1.28881
1.29426
1.3178
1.35342
1.45783
1.18019
1.67802
1.8154
1.63399
1.10228
1.54575
1.00831
1.38144
1.02456
1.28586
1.10792
1.51087
1.47556
1.19127
1.42482
1.65363
1.35351
1.44232
1.43229
1.00368
1.3895
0.958207
1.39603
1.59594
1.30085
1.40742
1.11698
0.944181
0.807009
1.5777
0.943607
1.94716
1.59235
1.67158
1.42813
1.62756
1.20459
1.59568
1.20698
1.20385
1.09874
1.44219
1.26325
1.493
1.21664
1.39332
1.50508
1.0482
1.30291
1.27413
1.67698
1.65708
1.74555
1.33308
1.60089
1.13947
1.2858
1.34908
1.2867
1.34263
1.5074
1.19531
1.45899
0.36261
1.47728
2.38085
1.01364
1.0818
1.20821
1.26752
1.64497
1.58573
0.974732
1.13996
1.31543
0.899688
1.40177
0.729141
1.43781
2.06172
1.65002
1.14894
1.27739
1.29878
1.07413
1.55931
1.73255
1.98131
1.19087
1.55736
1.19472
1.07219
0.961655
0.878858
1.89889
1.457
1.44411
1.18687
1.23889
1.15146
0.834611
1.4213
1.02866
1.38779
1.32811
1.80474
1.21227
1.88451
1.41213
1.37743
1.33718
1.07305
1.31459
1.5589
1.48174
1.41877
1.26306
0.936727
1.32789
1.02306
1.25362
1.95164
1.15998
1.5273
1.40431
1.41674
1.8311
1.91325
1.41901
1.38785
1.5369
2.19624
1.00164
1.58985
1.30782
0.814525
0.850934
0.984039
0.967096
1.63706
1.44408
1.60169
1.19759
0.91806
1.02113
1.56205
0.888402
1.2741
1.1372
0.89943
1.29999
1.0027
0.631299
1.78166
1.10149
1.46529
1.0367
1.2377
1.52007
1.17106
1.233
1.01051
0.897554
0.627465
2.02796
0.729946
1.40568
1.00014
1.2325
1.33356
0.891482
1.01378
1.03976
1.05182
1.05312
0.863189
1.04596
0.96016
0.849641
1.5912
1.7236
1.79609
1.15253
1.11276
1.13563
1.11059
1.54419
0.755917
1.37292
1.52794
1.32884
1.85544
1.35154
1.05397
1.80956
1.11469
1.47475
1.24474
1.06418
1.52166
2.07784
0.748468
1.07953
1.43899
0.741847
0.88134
1.45188
0.604601
1.20964
0.889038
1.77327
0.93553
1.19023
1.78991
0.916949
1.01982
1.28616
1.04632
1.37321
1.37274
1.66903
1.35282
1.02711
1.47188
1.13871
1.23302
1.30143
1.47452
1.02987
1.5729
0.917886
1.19338
1.25016
1.66986
1.52375
1.31984
1.08298
1.11512
1.10019
1.25377
1.19421
1.89057
1.3561
1.06444
1.29457
1.30974
1.10511
1.64523
1.2287
1.09823
0.928098
1.24451
1.42419
1.45896
0.964908
1.36315
1.17691
1.0536
1.29627
1.26658
1.19172
1.21078
1.20109
1.62024
1.41564
0.991124
0.915101
1.31763
1.45202
1.55119
1.36712
0.911826
1.23271
1.30544
1.02894
1.25916
1.61395
1.45353
1.69683
1.30905
1.24113
1.01044
1.30595
1.06542
1.91423
1.06969
1.64412
0.954617
1.4965
0.739145
1.67853
1.13914
1.26648
1.4694
1.64078
1.44621
1.44201
1.10318
1.5184
0.938284
1.28977
1.65324
1.25876
1.32617
1.07997
1.05855
1.20479
1.67348
1.15579
1.67174
0.846951
0.966779
0.882918
1.23055
0.988202
1.0865
1.75106
1.13493
1.38558
0.974085
1.36947
1.13036
1.07686
1.49593
1.02375
1.34856
1.98639
1.29956
1.1394
1.2942
1.3416
1.05076
1.7676
1.70759
1.34225
0.618172
1.5086
1.3438
1.13672
1.1805
1.16025
2.09057
0.894836
1.41854
1.22234
1.26623
1.09589
1.10055
1.47014
1.42911
1.54038
0.725327
0.532445
1.29741
1.48152
1.05868
1.28847
1.18273
1.9353
1.81446
1.72586
1.31663
1.41033
1.1317
1.19134
1.37352
0.900695
1.19365
1.39517
1.2916
1.28672
1.99517
1.60171
1.274
1.17307
1.15999
0.771631
1.22321
1.10834
1.53908
1.56083
1.49919
1.30486
1.30093
1.01594
1.33896
1.29129
0.896073
0.957975
1.35948
1.2754
0.969417
1.04515
1.53904
1.26444
1.05263
1.45137
1.31958
1.32368
1.90672
0.669082
1.20686
1.69889
1.68107
0.952556
1.3304
1.43998
1.74374
1.03019
1.25556
1.52703
0.714644
1.15706
1.16816
0.646007
1.43071
1.47724
1.15164
1.14694
0.995951
1.40522
1.23918
1.83609
1.01731
0.856627
1.71616
1.10831
1.02936
1.13619
0.866512
1.05331
1.07213
1.38935
1.11606
1.64968
0.958322
1.51052
1.13479
0.920569
1.47777
1.28865
1.17713
1.20262
1.44533
1.7401
1.31278
1.25229
1.3385
1.08272
1.91467
1.60062
0.977986
1.45322
1.06656
1.3334
2.18217
1.92257
1.40723
1.28521
1.21808
1.3988
1.11242
0.991961
1.01234
1.84158
1.86847
1.18543
1.43136
1.38829
0.95775
1.45072
0.970471
1.58196
1.09995
1.26837
1.16076
1.7959
1.5546
0.878324
1.15524
1.47171
1.94485
1.48086
0.964678
1.56158
0.743781
1.18312
1.08745
0.955884
1.62833
0.935699
1.15146
0.922633
1.20999
1.31057
0.792248
1.64963
1.28882
1.29823
1.19601
0.80933
1.56246
1.10011
1.24685
0.937091
1.22282
0.98687
1.48944
0.558044
0.658116
0.759048
0.820393
1.12203
1.33062
1.12445
1.39818
1.66086
0.868961
0.931196
1.29446
1.16174
1.06701
2.09617
1.17535
1.29441
1.42904
1.00696
1.26535
1.83642
1.26189
0.947272
1.2053
1.66047
1.38233
1.35506
1.82494
1.40516
1.54363
1.22589
0.948846
1.48046
1.64073
1.16455
1.25572
1.03988
1.28728
0.868627
1.27263
1.55196
1.38957
1.30404
0.804819
1.44321
1.21674
1.17754
1.39929
1.39877
1.49457
1.30276
1.49333
1.50337
1.26411
1.53348
1.93813
1.86381
0.906049
0.94992
0.568672
1.62313
1.56341
1.12257
1.29076
1.55854
1.22538
1.87136
1.82879
1.03776
1.37954
1.55504
1.43736
1.02527
1.18569
1.22761
0.72889
1.08827
1.23191
1.07522
1.47427
1.05313
1.07875
1.11903
1.15255
0.449962
1.02914
1.13274
1.237
1.30617
1.44504
1.39061
1.19255
1.49278
1.13438
1.35383
1.16918
1.20275
1.25988
1.44625
1.11724
1.54461
1.21616
0.892529
0.679639
0.919533
1.08007
0.75794
1.07177
1.63405
1.01961
1.74108
1.4591
1.17229
1.08364
1.34996
0.949044
2.05279
1.54031
1.72539
0.679119
1.44601
0.526058
1.48444
1.09944
0.809141
1.91655
1.28001
1.07339
1.44018
1.23832
0.847911
0.999511
1.11129
1.53993
1.14495
1.50698
1.16186
1.41434
1.16677
1.35105
0.964508
1.19038
1.40482
0.896722
1.31143
1.25529
0.933058
1.0202
1.43248
1.29771
0.918291
1.65491
1.25526
1.133
1.70842
1.3646
1.39739
1.27925
1.94919
1.20878
1.17313
1.40745
1.29318
1.11338
0.873759
1.25126
1.14991
0.825286
0.82418
0.940982
1.02944
1.29554
1.03294
1.12016
1.71682
1.52789
0.834756
1.12615
0.989629
1.30923
1.07427
1.35927
1.25913
1.50451
1.49106
1.2949
1.74627
1.15181
1.03832
0.872629
1.11938
1.20913
0.967374
1.09006
1.91498
0.925831
1.1038
1.0718
1.36087
1.41034
1.55557
1.33499
1.11113
0.776787
0.987013
1.14462
1.25393
0.931102
0.951307
1.52638
1.7071
1.28576
1.01573
1.32378
1.07136
1.10329
1.86543
1.83976
1.08633
1.18294
1.2572
1.61466
1.34138
1.1514
1.41323
1.00641
1.17014
1.24186
0.837628
1.24439
0.764922
0.887821
1.07077
1.00793
1.97526
0.869425
1.11207
0.966465
1.23979
1.06943
0.788384
1.33681
0.997568
1.25659
0.859717
1.11245
1.18736
1.11587
1.62589
1.14702
1.42293
1.19852
1.14295
0.771156
1.69647
1.29129
1.59635
1.14798
1.44077
1.23156
0.945518
1.47521
1.58485
1.18826
1.05378
1.53102
1.28545
1.21871
1.01455
1.68862
1.26442
0.977187
1.5834
1.32541
1.33887
1.06803
1.06651
1.43495
1.53343
1.4039
1.27359
1.90169
1.44072
1.19768
1.02135
1.75566
1.40896
1.51271
0.981191
1.30258
0.997283
1.48001
0.761143
0.757711
1.26055
1.25437
1.01801
0.835109
1.01966
1.223
1.41901
1.66478
1.7093
0.851187
1.39407
1.23139
1.05127
1.27893
0.934445
1.09551
1.31661
0.700782
1.56763
1.52978
1.13009
1.17014
0.84667
0.864136
0.83653
1.24327
1.53194
1.46626
1.61334
1.56829
0.862503
0.579151
1.52193
0.761918
1.22835
1.09135
1.26597
0.804849
1.13335
1.22576
1.41095
1.52606
1.26928
0.588287
1.11661
0.834115
1.70028
1.37319
0.957991
1.43377
1.19037
0.966447
1.2689
1.02466
0.880259
0.880906
1.3099
1.23695
1.42677
1.32526
1.73731
1.48988
1.36374
0.832665
1.25344
1.43122
1.09363
2.01601
1.14986
1.50033
1.41758
1.80149
1.94915
1.3917
1.1203
0.754114
1.37986
1.70811
1.19233
0.885184
1.81223
1.30371
0.809055
0.75412
1.35427
2.05695
1.31845
1.20908
1.01533
0.945021
1.58338
0.986796
1.51272
1.41176
1.12023
1.89647
1.30935
1.39523
1.11198
1.17814
1.2146
1.56523
1.34605
1.15961
1.35376
1.06393
1.31237
1.27787
1.23079
1.23872
1.78118
1.10715
1.11881
1.68393
1.84936
1.48786
1.58459
1.44794
2.03856
1.49473
1.36784
1.49217
1.33943
1.05476
1.35243
1.42021
1.2794
1.15558
1.54225
0.550712
1.70334
0.839486
1.27214
1.14804
1.43872
1.73656
1.26335
1.24277
1.49319
1.08332
1.33193
0.878099
1.14932
1.41088
1.10685
1.59297
1.90155
0.878799
1.17253
1.45883
1.30172
1.35229
1.07664
1.46869
1.50345
1.83518
1.04405
1.84408
1.24137
1.08869
1.43113
0.66845
1.26737
1.39784
1.27862
1.58307
1.60689
1.21933
1.26666
1.41247
1.09425
1.06759
1.4926
1.30547
1.68579
1.22002
0.795419
1.38127
1.1029
1.14703
1.13545
0.683145
1.01294
1.14241
1.71931
1.49396
1.53551
1.23277
1.119
1.3516
1.3423
1.18492
1.36587
1.14734
0.587292
1.325
1.08102
0.597951
1.42993
1.69822
1.19902
1.09952
0.853339
1.62958
1.17937
1.27388
1.43122
1.10717
1.0175
1.19946
1.19932
1.54274
0.97998
1.28787
1.48903
0.960255
1.28668
1.25009
1.07304
1.15026
1.3682
1.03405
1.34966
0.80061
1.67223
1.32006
1.05858
1.02857
0.876288
1.37522
0.899221
1.32179
1.1476
1.02047
1.35275
1.15712
1.23096
0.721944
0.816663
1.24619
1.55521
1.46588
1.23214
1.46708
1.59015
1.40749
1.40508
1.56339