/*--------------------------------*- C++ -*----------------------------------*\
| =========                 |                                                 |
| \\      /  F ield         | OpenFOAM: The Open Source CFD Toolbox           |
|  \\    /   O peration     | Version:  2.4.0-MNF                             |
|   \\  /    A nd           | Web:      www.OpenFOAM.org                      |
|    \\/     M anipulation  |                                                 |
\*---------------------------------------------------------------------------*/
FoamFile
{
    version     2.0;
    format      ascii;
    class       volScalarField;
    location    "5e-05";
    object      surfaceHeatTransfer_Ar;
}
// * * * * * * * * * * * * * * * * * * * * * * * * * * * * * * * * * * * * * //

dimensions      [1 0 -3 0 0 0 0];

internalField   uniform 0;

boundaryField
{
    flow
    {
        type            calculated;
        value           uniform 0;
    }
    entrance
    {
        type            symmetry;
    }
    walls
    {
        type            calculated;
        value           nonuniform List<scalar> 
3600
(
945.483
1794.72
1398.12
1024.14
853.311
890.347
1585.44
1478.68
655.189
847.304
1558.78
902.216
1165.78
1041.56
528.208
698.762
984.086
1349.01
1347.69
1052.17
1062.42
1065.29
1267.01
1194.38
1004.78
1014.81
1027.98
1297.29
1536.17
999.524
907.622
1584.44
1001.35
1026.02
1283
653.748
1273.93
998.002
1100.98
1321.55
995.2
1061.13
1066.9
825.427
1588.11
985.839
1149.67
1276.13
1430.55
982.922
934.133
1458.98
1393.41
1414.53
856.342
1551.07
1231.53
1096.72
1205.4
1257.47
976.176
705.734
1171.31
988.524
1271.95
1021.02
1134.14
874.171
1293.88
1064.48
1391.37
1343.14
1092.42
1488.81
1462.6
1314.73
1375.08
1231.18
441.404
1097.53
819.785
1370.87
1013.14
847.996
808.477
1128.14
901.494
1041.32
1237.48
825.364
1293.14
535.305
801.852
1413.24
1248.64
1252.71
1647.59
1331.28
711.197
1276.92
850.921
839.422
1152.2
1457.92
1383.43
1100.03
870.862
851.908
732.641
1328.47
1059.77
1384.35
1097.07
1608.87
1251.4
977.974
1592.01
985.308
833.42
1226.63
1293.14
1346.17
1699.87
932.398
1380.29
914.658
880.643
982.661
1336.71
984.258
949.738
1206.52
1022.44
1019.91
1370.02
1625.52
625.308
1004.03
1364.58
1429.76
1143.23
1035.64
787.72
1227.6
1138.68
1118.92
804.543
1434.69
1122.32
1042.89
868.579
901.825
987.461
1310.54
1336.77
758.158
1109.72
1453.75
851.998
1377.71
797.295
720.871
806.276
1551.68
1197.85
997.714
1070.95
1405.66
919.296
980.016
1010.72
1538.73
972.543
1009.08
1196.13
785.266
1333.09
966.292
885.594
952.898
1089.47
1617.32
897.464
852.183
751.03
620.256
860.207
1059.7
954.494
884.418
1107.32
1002.27
1290.4
795.405
770.559
1004.23
1083.57
1254.59
1346.08
1191.48
1229.21
1009.68
1039.65
1393.08
1311.95
972.969
806.285
955.173
1181.6
1048.77
1686.73
864.639
1189.82
1120.2
992.062
1059.02
898.493
1814.39
1507.3
872.038
1477.88
1291.4
832.879
898.751
1308.15
1109.06
1194.82
785.809
1127.16
870.852
1529.73
1220.52
894.117
1098.45
742.405
1424.77
914.278
1109.61
908.632
1010.93
1046.34
1476.65
1277.16
776.289
1031.03
1288.33
996.719
755.372
872.825
810.482
1136.24
1150.58
716.13
1186.68
1159.98
1114.91
956.725
882.23
1512.13
1037.08
1350.61
689.011
1255.72
1551.98
1126.86
965.713
1019.02
1009.84
1450.33
1211.58
1132.81
1353.5
1685.35
1337.92
860.056
1281.13
1162.12
1156.18
638.632
836.999
1161.17
756.504
866.398
1181.32
854.444
836.908
779.819
1036.53
596.291
875.78
1255.21
998.309
1134.22
1585.23
522.686
522.783
671.176
1006.42
1269.27
1068.94
1156.7
735.73
1266.03
706.995
871.448
1004.96
930.107
1120.74
1003.51
1086.65
991.941
907.475
1302.95
1448.31
1242.91
957.205
1283.85
1090.55
1004.56
777.485
603.473
1020.59
833.452
1054.85
958.793
1587.3
1287.59
1181.52
748.777
1471.69
1133.44
1144.65
1254.45
1553.35
833.246
1281.31
1064.75
1387.68
908.292
1324.63
966.941
1042.42
966.419
1225.71
983.159
1258.62
569.872
1118.72
877.63
1236.65
622.253
1073.02
849.207
727.899
1669.6
1025.77
1185.65
1296.3
1085.94
609.855
821.483
798.647
1522.62
816.245
944.882
1048.36
697.498
941.981
1015.09
1172.97
1023.5
867.183
1164.89
1412.01
1147.37
1177.76
909.467
1322.06
803.619
1073.74
748.914
853.308
893.669
1665.48
1240.14
605.818
1247.29
783.917
1107.75
887.078
932.574
1140.34
1369.99
1214.23
1376.94
1121.96
448.201
908.387
706.81
923.842
982.171
844.5
726.883
1194.85
650.366
1581.19
952.566
1028.13
742.724
973.77
922.078
1169.55
1177.21
1080.89
944.488
738.807
1167.99
990.986
969.674
1118.22
1308.45
1037.51
881.546
1026.76
900.556
1087.15
1221.31
1162.35
692.92
1180.07
858.117
1236.99
1046.21
959.878
749.225
651.231
1106.56
820.08
819.638
1216.53
1051.03
473.991
893.327
1034.9
1131.87
1386.47
1279.49
787.262
1220.39
1206.48
1526.62
1100.11
1079.78
1385.34
1078.86
1094.53
1469.6
1235.02
983.302
926.235
1328.55
845.74
1188.04
455.53
875.551
1123.61
1323.77
645.332
679.654
700.81
901.534
1275.95
903.428
1080.81
415.718
1323
969.405
1282.39
897.111
956.016
934.309
952.521
827.948
1036.24
884.973
1005
1073.72
776.825
1127.82
555.712
1142.24
1074.12
910.581
1109.68
888.026
825.363
1255.71
347.24
790.997
938.623
513.443
1268.42
1291.75
634.275
845.118
1291.65
1360.66
1924.94
895.605
879.051
1104.2
1657.42
1697.22
1443.57
1501.06
1563.86
1057.23
1031.6
1273.47
1635.66
752.436
1022.91
1085.35
1098.92
822.323
1001.28
990.904
1676.53
1084.78
587.885
1048.25
1276.66
1084.4
1385.55
828.735
922.809
1090.57
1011.85
752.768
1284.9
1326.71
771.082
803.628
1023.7
1057.98
871.642
765.013
777.982
996.243
1100.7
895.035
881.711
730.255
721.316
760.933
1195.5
1433.76
1112.19
675.921
923.753
467.309
1134.21
1077.01
805.664
1132.64
1400.98
984.35
1038.48
1179.51
1044.39
1107.06
1103.13
1150.68
639.787
1247.66
1066.05
823.528
1328
491.772
1232.91
1553.05
1184.93
1508.65
738.153
1096.33
863.443
959.297
966.135
832.823
639.274
895.42
509.592
936.359
867.3
1313.96
863.49
875.365
1043.59
823.483
1147.31
1142.97
887.357
1236.16
1100.41
1292.6
1113.04
827.932
1145.8
1147.91
1216.16
856.993
982.536
1016.05
434.022
975.714
1142.33
909.812
1257.07
1212.99
1296.37
1157.28
1281.54
759.331
747.522
783.907
741.226
878.456
876.421
678.138
908.135
1000.24
668.297
795.025
1097.21
833.713
553.77
1019.15
1166.03
1339.34
1154.5
1071.31
1549.36
1397
664.671
656.096
1459.4
1307.43
980.664
825.64
1143.86
1150.14
1153.98
951.184
1199.16
606.3
1090.52
1078.47
738.669
1039.63
743.729
957.287
1316.45
764.744
1204.48
1267.41
1318.65
960.608
767.79
746.881
1183.32
1566.52
1244.38
1076.71
1252.24
885.774
807.246
995.377
848.948
1051.5
1007.84
1078.29
551.711
1165.58
842.789
900.463
830.125
1416.58
777.102
684.021
1044.87
1104.84
913.372
1001.66
1187.35
1645.02
1245.76
767.999
1246.63
873.773
866.396
792.42
1700.25
1243.88
859.426
1175.37
1352.78
1271.51
833.42
760.072
807.146
1153.46
1277.53
1049.04
1215.28
485.834
981.382
775.25
1122.04
797.257
1396.54
458.797
774.145
1125.36
1244.6
888.767
1072.84
772.436
1034.27
1224.88
1311.34
943.373
1362.31
790.834
1233.06
739.786
1153.03
1055.52
892.011
1132.13
1058.33
1307.72
1142.78
740.566
1275.11
628.349
647.473
699.688
810.047
1003.53
577.081
1420.05
1089.27
1222.58
337.715
1235.46
1260.73
497.088
1130.86
1055.26
874.519
1063.24
1347.2
1408.62
673.59
849.945
1472.82
832.377
1031.34
1055.25
938.706
918.679
1063.59
1164.08
731.891
1031.88
1070.13
1420.45
1464.83
1032.77
1076.28
700.423
701.163
1088.08
930.556
1086.3
1029.62
1214.47
1443.13
916.441
1136.64
1224.62
1034.01
851.229
624.241
1189.24
744.998
1125.66
798.066
1516.95
658.661
448.5
1127
876.335
704.315
1210.72
694.632
1360.41
820.389
862.727
808.159
911.434
916.897
1316.85
527.45
763.97
1203.45
1606.96
895.634
925.162
802.746
777.824
1260.49
949.862
1454.11
1237.14
1003.29
1198.95
1319.81
1189.04
536.686
1054.18
1594.7
1196.78
583.179
1510.65
971.463
1246.81
1303.33
998.971
1350.88
1197.89
1138.9
704.049
1259.91
934.715
813.676
1263.42
966.267
866.976
1190.15
1091.23
919.324
776.047
996.167
1056.27
652.663
773.832
1196.51
1080.28
711.708
983.626
728.941
649.85
1044.12
959.011
841.17
1359.31
1102.25
1074.78
1098.6
844.279
1125.64
1431.39
1129.22
1365.36
750.006
969.758
1106.2
821.977
1222.55
892.845
1501.98
1245.68
1135.36
876.613
1142.36
834.547
610.166
739.258
821.156
840.562
951.225
1303.06
1091.96
668.598
1157.66
1101.79
1072.62
936.337
936.524
507.084
750.163
624.251
1039.52
541.761
1125.96
1316.07
1074.05
1158.59
1001.3
1392.65
1022.65
930.566
1100.77
544.73
566.001
889.358
811.104
1039.95
696.214
868.478
1523.67
986.071
852.649
877.92
908.137
874.08
619.253
1150.41
936.886
1257.4
887.586
1206.88
910.446
1120.32
1402.01
808.156
1453.24
1190.18
1943.14
865.436
1098.98
1137.84
864.983
1282.03
802.811
1325.42
952.578
1227.37
874.243
883.698
1210.94
930.745
965.154
822.23
1251.11
755.046
1095.71
809.464
879.706
1185.57
1376.34
999.682
1290.49
1060.46
972.492
942.728
863.012
1264.73
1162.38
1045.16
748.388
552.695
1131.38
728.103
1018.36
1387.52
1463.37
759.863
1307.25
709.161
956.77
751.729
549.799
926.638
1421.46
1198.55
803.118
1213.13
997.287
1245.01
1551.41
1070.78
867.126
1014.4
958.044
726.502
1007.78
1257.16
974.885
992.942
1177.47
957.598
1343.81
864.329
1204.18
883.174
1322.19
366.673
801.877
804.625
659.879
833.378
1326.74
1285.24
1278.88
1436.73
1172.44
1092.22
1312.67
871.763
1665.4
855.572
1205.71
1521.17
1545.68
839.606
702.824
1092.62
1134.07
1267.06
671.262
1039.58
1096.96
807.191
981.993
963.787
1137.56
968.116
1063.54
992.783
1024.67
974.043
1261.16
818.7
716.564
1116.09
1244.04
1267.83
967.932
1078.88
943.336
1194.12
443.138
839.103
978.835
1057.47
823.46
1173.04
608.713
882.401
1274.97
917.667
1196.32
1251.56
614.958
1177.35
1107.12
715.965
765.641
1468.51
882.215
1634.99
1166.26
1010.2
785.315
746.972
672.901
1259.14
1127.09
566.564
941.229
1386.87
830.829
749.108
1023.15
1385.53
1168.45
495.409
490.799
961.582
780.303
909.941
1170.47
801.216
1000.72
1250.77
1303.33
617.844
962.748
1156.35
1143.09
1344.23
1023.75
942.861
701.442
1023.53
867.772
1173.94
984.233
1402.94
782.533
824.795
1281.6
1196.48
1167.27
955.615
852.211
1305.76
1295.38
1447.13
1254.82
859.507
1181.59
1033.86
1657.29
1131.79
1021.45
938.261
1332.95
2005.21
742.625
1000.9
1322.42
1173.7
994.807
910.726
832.587
911.712
1001.41
837.013
1019.75
1445.55
899.334
973.287
1018.55
705.043
998.159
813.819
939.142
1124.71
932.719
739.25
1052.61
1202.81
1308.17
1031.51
1204.26
981.609
1118.96
959.419
931.59
1017.82
1264.35
528.383
987.288
540.311
991.637
693.895
1291.19
976.651
1349.1
1258.32
1673.79
1017.73
1010.62
1311.06
1074.7
1115.53
1094.23
883.688
837.081
1011.11
798.011
1061.32
665.838
871.539
1566.78
434.754
1210.21
1366.73
973.854
1219.35
1398.29
951.99
619.315
1204.6
1229
752.707
1316.83
1428.16
996.435
1146.61
1235.17
715.988
876.931
1080.79
1082.34
1414.6
775.816
983.911
775.848
643.156
1012.1
950.245
1222.58
818.594
1515.13
1391.81
966.807
1050.28
660.062
1245.62
908.208
969.314
862.921
910.132
935.711
1046.09
971.352
1280.47
818.204
826.27
1068.41
1316.72
1061.77
940.769
982.663
641.821
1061.97
1129.54
1028.32
1363.71
1114.98
991.157
1254.08
1425.42
639.7
836.847
794.896
965.425
1060.58
1034.62
1270.76
762.841
699.439
752.258
1053.26
1050.94
1318.56
869.28
591.834
779.889
915.46
1097.54
1113.56
766.236
1136.09
824.185
934.078
992.439
894.935
1090.95
942.75
845.982
833.876
874.344
1187.45
885.183
1447.33
967.468
1238.6
987.962
766.87
1005.43
1030.06
1240.04
740.965
1003.65
894.664
773.437
1530.92
889.292
1021.18
1139.86
1150.2
468.136
887.002
994.22
857.83
973.188
1151.09
1217.97
874.834
713.387
1363.35
857.387
1401.1
815.921
924.064
1451.28
594.18
1334.35
1095.26
1126.18
1035.96
631.9
887.101
815.804
966.465
1192.26
960.254
927.84
587.05
981.615
663.37
911.846
1058.32
1235.19
1174.4
971.158
774.99
328.97
742.852
990.16
1623.69
874.307
1169.63
1183.22
566.957
818.352
867.111
1316.02
1235.33
1040.93
1316.89
1342.18
947.418
975.024
1496.34
1028.92
1172.23
1040.83
914.322
1259.78
707.282
765.315
1051.25
1313.4
856.463
1330.16
1371.52
994.97
1446.41
1160.17
973.76
824.393
1063.26
634.431
1036.37
712.478
729.199
1135.77
817.696
778.956
1296.04
946.789
1081.65
1022.61
858.673
1028.22
1007.95
1044.46
1004.44
795.537
887.617
834.841
956.916
1295.56
853.049
739.747
1029.11
735.153
377.697
678.97
1134.66
1032.17
895.734
986.945
926.881
977.267
949.142
1196.46
1717.65
1159.83
1239.94
983.452
963.917
960.279
1069.92
868.258
1451.95
1055.78
1079.03
1286.62
744.995
894.246
675.164
1148.26
909.196
1161.41
1006.51
916.657
767.982
784.26
975.553
1141.08
1240.6
504.948
1287.35
1094.82
526.48
1250.84
1011.5
720.31
1321.91
553.099
1377.91
767.205
957.547
538.116
1134.92
612.589
1381.07
848.277
1399.61
1424.27
882.335
939.205
1282.84
822.717
805.887
1342.19
1341.5
795.968
942.571
1203.67
681.901
996.025
323.911
1100.63
1084.13
853.449
692.391
842.123
885.065
958.513
1461.43
858.823
803.976
910.83
1140.62
696.728
1143.85
1210.12
886.58
1130.46
928.343
1015.97
1328.58
1317.28
1133.48
1133.42
967.918
856.13
1154.5
1028.24
1488.3
940.968
1395.62
714.008
767.41
788.579
1220.13
1104.65
803.801
865.872
996.915
1158.67
1196.28
816.644
916.163
1035.73
1403.73
799.858
912.852
1377.56
1433.07
1229.55
1474.44
953.17
893.744
586.965
728.027
1166.48
1159.65
961.401
1079.94
1058.3
853.922
914.52
1033.23
928.831
1397.55
984.397
1138.25
869.102
871.746
682.134
1059.73
1270.01
1204.77
628.16
1066.15
839.477
853.173
933.548
1234.1
1012.62
823.398
755.213
1163.9
1402.08
954.628
1157.14
1115.13
981.323
547.047
1108.35
948.629
969.093
943.155
1170.48
1290.59
1144.19
1267.9
988.613
929.322
1158.93
778.578
1434.37
675.881
826.378
1044.93
1097.13
792.689
926.388
1224.07
1113.83
803.934
1238.37
1505.79
1056.37
988.498
704.224
955.493
1025.01
1514.57
832.497
1048.56
802.283
967.6
701.986
976.357
499.257
1053.81
954.722
1141.62
551.575
1124.47
965.168
1373.42
1705.7
725.72
967.852
986.133
812.914
632.631
1085.72
1199.98
1138.16
1241.66
884.453
825.428
911.644
1469.32
1067.97
1154.86
684.768
831.605
696.101
982.891
815.508
1096.26
1062.45
509.335
1186.03
896.021
1219.85
1073.36
725.824
1028.17
965.528
1316.69
1095.21
760.266
1391
1089.34
852.578
1001.43
814.958
1252.26
815.242
886.203
968.149
974.123
877.456
1090.25
902.318
1385.26
1594.46
1185.7
1134.75
788.771
643.374
736.572
1114.14
737.604
884.458
827.547
857.689
1021.43
1084.56
1099.32
1255.53
549.168
655.327
425.846
658.272
1236.33
1260.93
1097.28
1375.42
933.33
913.993
1011.29
687.033
929.911
1140.17
1069.45
876.849
1204.29
1170.92
1443.54
679.428
1086.07
654.718
623.944
818.815
1055.43
1043.43
929.604
505.717
645.726
839.496
1485.86
1058.27
1099.43
802.595
1428.78
1267.25
1082.76
796.996
1157.05
825.816
729.055
993.71
1122.14
934.772
776.916
1046.98
604.051
1225.8
696.148
724.052
996.073
1087.61
999.605
1136.69
987.371
1091.76
1616.6
845.465
1293.58
664.172
1307.69
1048.97
902.015
1018.25
556.965
1011.73
1119.03
1210.66
942.301
1216.69
872.208
853.339
940.543
521.411
1039.82
892.842
766.326
813.742
978.712
397.018
1199.21
806.557
1112.88
1099.45
1204.59
818.652
956.117
964.306
810.154
1192.99
887.17
645.427
1009.69
689.603
603.396
731.78
1368.22
1113.32
783.547
814.012
707.427
1725.9
547.667
1355.32
831.661
1439.35
890.198
909.892
1127.6
802.853
790.464
834.863
1535.51
1005.02
938.829
855.69
873.794
1031.98
751.868
1215.38
976.376
967.619
959.04
1530.63
724.624
1261.05
658.887
849.279
1019.44
918.065
806.109
463.309
1320.09
673.445
935.681
1075.06
1351.56
1276.13
838.162
678.223
1132.43
1104.58
789.606
1368.14
710.703
1380.23
1023.73
1148.08
857.041
792.911
955.637
661.562
1729.23
989.37
881.942
1038.38
871.083
1240.18
1286.79
861.39
749.661
1467.3
875.025
1361.35
1139.98
1266.12
1167.87
1211.97
695.197
1075.68
778.69
855.202
1329.15
965.203
1320.67
1031.26
1526.07
835.501
1068.92
1295.23
826.219
850.141
1172.7
891.434
1098.37
1281.12
1343.18
1053.63
1340.06
1153.29
1153.15
972.384
803.129
1336.21
1001.3
668.569
1028.41
1607.71
900.262
1055.72
1160.92
1054.24
807.527
1102.48
1052.23
501.491
1590.73
746.272
1014.1
1161.14
661.913
1325.05
1222.03
1027.19
965.34
1333.25
701.004
953.742
1233.39
1294.05
1253.64
1171.52
1256.46
823.495
633.371
1685.18
1274.74
825.791
1325.81
936.69
1233.58
1304
982.763
757.419
899.64
690.919
1179.61
1336.43
1045.85
1317.02
1127.36
835.673
1490.64
1287.09
1134.51
1022.55
1154.36
831.833
786.076
1232.1
1072.4
1110.43
1260.53
911.669
1092.58
1288.29
1391.5
1198.18
946.096
1234.38
758.091
1527.33
1332.94
1378.26
1167.42
1332.31
1099.68
1326.3
819.482
1228.24
1004.76
1463.49
796.579
1083.16
995.426
1338.35
1074.63
1195.32
1326.76
1052.75
949.443
838.493
1375.99
1244.31
969.289
1619.24
1105.94
853.264
615.705
1017.36
989.155
1071.17
1265.94
1310.38
743.231
1223.85
771.787
1331.95
1403.01
908.221
1247.61
1167.31
1040
754.889
990.35
719.3
1065.86
936.835
722.688
1449.36
1366.63
1327.18
1188.96
1177.36
984.75
954.589
997.549
878.801
817.873
1201.32
1111.98
1288.55
950.035
821.9
1213.48
676.998
971.906
865.582
697.243
863.011
1406.86
925.065
847.471
1441.57
1424.09
963.386
1080.69
1571.64
1306.33
921.38
1266.78
1185.55
1085.62
587.947
1477.93
1009.7
1157.66
1272.41
1405.39
756.302
980.375
1061.83
989.42
1144.7
719.67
714.52
902.188
1218.57
1418.36
1153.55
1138.67
509.842
413.789
722.288
1101.83
1128.2
1383.43
1124.77
1220.66
527.581
1149.59
873.079
1062.84
1331.65
1100.18
1220.93
961.244
930.032
992.61
1297.07
1003.39
1150.49
1321.9
935.828
1455.1
1169.41
1476.06
1012.49
1220.09
1201.62
1694.87
715.605
982.341
652.763
1141.01
902.027
721.77
1107.94
1317.85
1128.96
1315.21
1286.46
1250.56
897.567
690.206
740.175
939.419
730.019
892.768
1372.14
819.663
1432.67
1036.7
1152.74
859.968
952.411
1137.8
1745.34
1218.87
834.059
1391.59
1004.19
964.338
882.552
818.263
726.772
1113.4
1035.96
751.729
1018.14
907.003
1121.95
1070.84
740.032
1179.43
1851.39
1486.9
1025.8
1093.7
1199.31
1122.58
890.433
844.663
1237.08
847.313
1092.49
1007.94
1124.46
1455.77
782.914
758.658
1180.78
884.623
957.128
1259.21
697.31
1275.45
1222.32
1201.52
1504.07
1490.1
676.411
926.097
1017.67
744.67
796.394
1159.02
982.478
725.56
838.324
880.442
962.403
941.238
995.981
754.933
663.895
938.829
1059.02
1248.57
1220.1
1731.01
934.153
857.764
556.608
932.217
896.15
1561.6
1019.83
682.859
1133.12
913.585
761.104
1183.39
1087.99
1127.57
965.865
808.097
683.382
1208.55
1460.23
1035.04
1005.45
1518.77
730.483
744.606
732.513
872.69
872.023
792.067
950.832
514.684
1166.82
988.238
1378.42
819.811
1170.35
988.534
968.073
1325.94
1091.29
1040.76
1454.81
1161.18
642.2
986.374
989.322
1760.17
1136.56
661.454
949.421
1003.26
831.277
933.491
941.417
1041.06
977.965
1104.29
1534.95
620.906
1047.21
1200.81
440.576
803.804
1399.18
964.109
434.876
1333.66
1246.25
890.66
951.162
911.156
1006.8
775.535
771.381
866.583
1109.79
897.483
991.585
1171.67
361.957
830.351
1483.2
1154.21
1056.56
1072.14
1247.94
668.7
683.601
1126.06
848.966
777.619
927.568
816.204
761.872
1028.53
966.919
745.323
962.779
1369.3
1178.03
643.425
1266.42
1263.89
753.154
766.657
865.574
1080.87
1361.42
1070.18
1026.32
1132.66
1318.76
899.23
1029.9
972.377
569.505
1353.45
1377.27
1650.79
1165.33
944.725
774.711
1056.55
818.514
1218.1
1299.2
1162.85
1114.29
1262.34
731.352
1060.54
761.438
1015.54
875.817
984.75
1018.61
1302.03
646.806
1085.85
748.522
823.189
1208.31
945.083
1049.16
1293.28
853.967
622.777
1095.79
705.26
889.293
930.065
968.08
936.742
786.41
996.588
1155.85
907.76
903.686
1068.76
1011.85
777.893
1226.93
889.631
730.103
1270.21
984.646
953.628
1222.26
1402.97
725.477
1014.14
1204.99
1373.47
952.166
871.346
911.282
959.827
759.758
811.611
883.837
1016.98
1093.76
1179.62
663.802
1332.14
941.888
702.39
558.271
561.594
1035.99
999.333
1526.47
1238.3
995.177
1071.32
992.508
1288.41
1004.64
862.765
1280.15
801.072
766
1391.22
1397.21
1011.36
1043.27
1170.06
992.646
980.803
1098.29
1110.05
994.506
1338.29
757.028
1159.55
1194.77
1170.01
1106.93
984.274
1026.98
1396.89
851.233
805.309
1032.05
1271.99
1206.72
1166.56
1340.8
927.321
899.887
765.791
977.88
1113.12
1001.72
799.68
898.628
746.986
1028.44
1181.06
1049.26
936.298
471.136
1095.62
1468.24
1092.97
1307.14
940.989
1393.35
959.251
765.94
775.517
1135.32
764.316
932.935
1051.07
915.349
947.309
1040.23
626.573
765.057
847.707
1097.32
1104.61
961.334
915.339
984.107
817.467
1048.5
818.068
880.247
1353.76
1178.43
1113.81
1229.56
938.401
944.078
865.021
965.055
1316.16
1122.52
1173.17
946.64
1080.43
1462.02
962.478
715.62
795.788
1092.98
1052.65
854.582
1406.74
1110.86
1145.9
1117.15
810.987
1126.16
1025.23
730.323
771.067
1083.77
591.251
688.216
878.85
1416.16
1291.11
768.932
1189.78
683.491
803.167
1131.25
1404.16
1152.51
1277.45
1193.06
1222.45
1053.2
1266.3
1261.35
1046.59
729.672
1690.45
1296.45
936.395
1179.92
961.712
1031.99
1186.45
804.475
1238.92
669.67
909.482
1565.02
572.484
769.898
1350.88
1021.29
753.961
819.656
1217.22
1021.31
608.689
1005.32
1429.79
968.807
820.92
599.875
864.512
688.174
780.605
494.289
1052.44
1187.93
1165.02
1021.03
1324.69
1335.63
830.174
1059.51
517.672
1211.48
708.884
961.293
1035.62
1044.64
971.734
952.529
740.543
726.84
630.26
702.749
1051.37
1019.65
1181.53
974.835
739.616
1039.19
989.851
1037.04
1092.51
1168.25
702.389
853.842
1293.27
1196.96
888.747
625.062
1068.11
1013.98
1096.67
971.895
1002.79
999.761
922.03
1110.42
1080.9
1351.36
1376.41
1319.14
755.462
1210.64
832.758
1071.97
802.483
1091.5
913.76
1106.27
1234.23
1042.33
1071.41
1339.89
1126.97
1221.84
1109.39
679.926
1322.66
747.708
1106.05
1453.6
1148.01
994.212
894.896
881.052
800.229
1346.24
824.834
1530.97
1321.43
1365.73
978.616
1095.97
955.725
1361.46
992.603
920.632
901.168
1054.11
1186.43
1339.89
990.746
1230.48
1207.76
914.062
1091.39
985.076
1450.38
1320.99
1385.72
1072.84
1277.89
1023.3
1036.26
1192.54
1102.79
1029.87
1119.72
912.449
1395.58
415.813
1050.49
2060.74
795.25
854.668
933.201
1109.71
1332.08
1273.14
827.222
1041.47
1181.79
860.262
1085.8
640.086
1199.82
1782.8
1208.27
928.028
1037.45
954.021
792.399
1221.73
1478.38
1337.79
875.282
1080.8
844.009
848.802
779.499
711.862
1483.19
1160.6
1237.47
803.668
896.224
899.923
536.443
1172.73
871.17
1169.93
997.071
1349.44
1005.24
1351.86
978.391
1020
1134.64
882.933
1080.39
1225.96
1172.43
1158.85
1010.23
612.198
1077.15
862.287
836.593
1695.89
849.316
1257.44
1154.41
1080.71
1355.49
1465.44
1086.04
1056.46
1116.96
1643.74
794.25
1242.99
1085.61
704.159
690.64
893.907
918.027
1289.36
1161.6
1141.11
850.942
770.024
760.841
1282.95
682.463
1126.1
947.014
778.017
988.792
803.573
499.365
1475.96
902.224
1200.84
791.433
1040.87
1189.26
945.832
1068.81
822.834
646.572
604.518
1561.13
457.479
939.755
812.549
1073.53
1139.65
641.391
722.546
779.69
1066.71
957.659
721.066
805.149
694.753
700.576
1179.43
1423.74
1512.69
808.162
891.199
989.822
781.714
1224.06
574.467
1020.92
1320.76
1059.07
1442.44
1062.44
926.216
1559.1
867.331
1208.74
932.026
860.768
1254.97
1754.71
570.447
828.34
1111.94
642.81
726.889
1239.9
399.622
1052.05
794.242
1467.43
848.556
1109.97
1318.87
801.455
734.341
887.813
795.647
1152.8
1062.58
1405.7
1042.56
744.749
1188.72
927.479
981.146
875.667
1197.04
777.275
1329.77
705.031
877.548
994.447
1304.53
1223.91
984.05
1009.54
971.04
749.446
1079.63
1011.21
1548.47
941.32
815.594
973.157
1162.47
901.562
1421.67
1011.74
905.662
704.238
877.361
1133.64
1162.17
724.802
892.95
808.339
805.372
1032.87
1162.81
1032.38
951.558
1078.33
1306.34
1138.7
931.917
869.678
1175.91
1079.55
1022.76
1122.44
780.457
954.078
1129.9
860.005
1015.52
1083.62
1039.41
1253.12
1078.14
1054.75
748.778
1106.07
880.344
1643.47
845.843
1264.69
764.519
1094.97
506.456
1368.55
736.282
1155.18
1192.34
1251.59
1184.01
1200.41
945.525
1103.25
730.102
1010.97
1388.71
1007.54
1021.15
931.723
868.506
1003.66
1483.21
904.444
1307.64
779.343
902.497
714.815
992.16
773.422
901.109
1268.15
854.143
972.34
834.337
1136.72
985.584
935.662
1321.44
748.091
1302.49
1549.64
1073.2
832.164
1023.09
1103.47
758.611
1548.12
1413.94
1079.44
485.567
1313.22
955.151
793.46
832.064
999.164
1704.94
565.306
1259.2
879.58
1026.76
872.495
844.583
1129.65
1000.95
1255.86
586.092
436.295
958.277
1128.07
869.399
973.48
1022.91
1670.8
1473.98
1239.95
1082.4
1013.76
962.337
781.472
1101.57
867.938
883.37
1259.53
961.666
1092.49
1608.17
1332.16
1086.21
895.779
910.884
618.369
964.872
973.409
1313.55
1282.82
1094.86
980.043
1012.54
902.552
1038.78
1120.06
755.725
836.729
1130.16
1081.38
853.461
730.662
1250.94
1153.79
940.586
1299.31
977.812
1110.67
1617.76
591.125
1007.74
1429.55
1335.97
802.141
1170.42
1112.96
1361.17
805.299
1024.53
1024.6
557.765
886.717
989.816
515.161
1211.75
1241.87
882.53
957.263
770.297
1247.64
956.587
1351
866.005
617.034
1321.75
867.842
961.785
841.42
737.967
931.387
965.991
961.817
955.765
1359.55
846.976
1132.55
904.314
763.933
1304.29
958.533
931.398
1027.09
1217.2
1413.69
971.416
1087.43
852.55
803.097
1640.77
1211.19
717.551
1265.48
932.581
1047.61
1635.9
1527.58
1260.78
1106.52
905.114
1029.9
734.47
809.455
779.043
1358.79
1653.87
957.469
1200.95
1046.55
733.251
1151.94
852.523
1193.7
870.56
1007.16
822.403
1553.2
1124.97
640.84
1114.85
1069.54
1686.49
1161.32
722.574
1327.29
603.91
890.27
840.258
617.903
1240.81
771.875
788.724
761.068
1106.41
1035.97
479.503
1383.18
1179.89
1174.93
1041.72
601.55
1361.35
818.715
1006.76
826.572
984.985
836.979
1323.69
492.25
546.318
747.112
655.776
898.426
1252.97
741.291
1185.38
1444.61
666.184
884.098
994.969
856.553
789.413
1704.47
1021.5
1098.7
1088.21
926.611
1098.9
1410.69
896.702
598.077
975.587
1201.9
999.691
1199.4
1455.82
1155.78
1077
1020.05
721.669
1175.47
1334.77
873.981
1027.66
743.279
1025.94
899.288
910.742
1165.03
1104.86
1158.62
571.623
1178.07
893.288
893.602
1153
1015.91
1118.74
1104.56
1016.88
1224.25
934.113
1140.77
1650.05
1365.17
781.545
758.763
448.889
1313.22
1201.25
945.576
993.278
1132.65
990.212
1489.5
1401.79
837.345
1130.61
1079.92
1195.12
777.936
896.31
1088.79
629.878
895.899
948.841
891.924
999.864
775.733
876.467
963.581
980.23
353.716
781.24
893.812
958.965
1137.27
1118.61
1060.93
987.381
1084.57
865.418
941.643
875.02
916.531
925.826
1120.47
878.265
1311.47
1036.64
718.36
487.528
781.145
1025.46
624.751
870.642
1489.7
794.742
1282.75
1068.26
958.292
862.356
1017.27
848.459
1675.21
1281.09
1280.82
545.868
1140.39
364.54
1263.79
810.411
668.951
1556.71
958.734
945.636
1070.75
982.04
721.173
989.185
984.012
1152.61
1102.36
1393.56
844.066
1180.07
874.788
1175.79
758.455
931.991
1157.64
737.833
920.861
1060.61
719.783
845.985
1177.02
1002.26
746.42
1657.27
934.891
931.006
1359.9
1016.74
1162.26
1048.91
1594.5
929.21
938.937
1117.96
1135.54
872.291
700.041
925.335
865.151
701.875
777.416
757.056
974.068
1140.11
814.814
949.475
1402.46
1195.37
688.029
972.086
794.486
1172.62
811.443
1105.81
1073.97
1141.96
1283.89
1095.24
1503.52
920.627
763.111
809.651
761.44
992.333
799.701
820.014
1389.9
750.136
861.203
1014.42
1054.95
1072.93
1306.95
1173.11
831.142
629.222
890.011
875.638
1118.9
767.033
765.016
1180.5
1593.84
980.54
744.455
1110.27
838.037
850.625
1522.92
1452.98
919.323
1000.86
898.088
1281.75
850.051
890.795
1147.62
851.287
970.22
1004.54
563.167
955.542
629.563
728.799
829.179
684.114
1482
641.065
945.968
806.65
1055.57
842.913
647.51
1109.22
812.638
835.64
738.321
781.383
946.551
867.507
1276.06
861.727
1259.07
1082.77
943.926
526.691
1435.91
1110.81
1346.62
830.972
1270.85
872.803
808.228
1249.22
1231.37
901.24
957.418
1153.42
1125.57
980.744
807.745
1367.08
725.456
817.37
1166.49
1131.13
1182.99
908.374
767.571
1171.72
1390.99
1289.05
902.095
1606.18
1233.54
869.571
881.48
1413.54
1095.46
1044.41
720.725
1118.62
868.894
1163.12
588.05
644.261
967.654
994.893
806.849
766.878
810.871
879.908
994.003
1382.65
1383.84
728.703
1129.42
1017.6
984.913
1093.19
799.972
924.533
1013.3
704.008
1051.96
1145.98
1045.74
922.246
719.809
692.794
755.879
1042.38
1195.33
1165.26
1305.62
1178.36
720.723
533.827
1261.72
703.338
923.943
897.302
1227.81
736.654
919.436
1156.7
1053.94
1273.27
913.575
556.431
953.058
711.773
1177.84
1110.87
685.52
1113.46
1115.74
790.953
1100.41
801.761
767.447
711.538
1075.18
917.887
1231.36
1108.83
1446.86
1330.57
1062.55
713.245
932.237
1176.43
879.53
1652.46
996.005
1362.73
1142.82
1441.76
1531.48
982.394
863.286
562.651
1228.11
1266.5
856.404
735.934
1479.58
904.319
565.412
710.816
996.339
1836.29
1105.83
959.857
786.068
456.259
1335.7
808.431
1162.91
1242.62
704.47
1361.02
1110.62
958.518
822.406
969.418
937.056
1268.87
1251.95
969.779
1036.68
852.246
978.028
1109.38
993.429
1086.94
1323.91
971.715
913.231
1143.69
1450.37
1168.98
1270.92
1235.2
1532.28
1218.42
1107.38
1258.17
984.759
889.056
1105.54
1466.22
993.135
1013.08
1283.46
482.775
1489.29
692.329
1104.48
825.665
1050.52
1433.12
1009.13
1118.18
1102.9
947.369
1077.69
750.209
939.262
1006.1
768.915
1271.82
1554.55
674.942
902.049
1174.45
890.321
1054.69
824.536
1201.17
1151.07
1499.92
837.726
1552.62
984.164
797.402
963.421
614.568
906.133
1189.05
1078.12
1235.78
1267.35
889.574
1139.28
1001.71
820.123
887.929
1120.08
1194.82
1344.15
907.035
594.868
1021.41
721.192
964.129
905.522
567.068
864.375
917.226
1406.78
1188.16
1177.96
1102.18
955.401
938.249
1070.34
840.868
1023.92
962.896
478.856
1061.83
825.899
540.068
1211.55
1299.57
871.613
991.081
635.307
1236.25
927.167
950.005
1076.51
753.092
978.159
1054
945.166
1035.03
843.411
959.649
1245.54
831.847
964.537
988.269
863.567
904.056
1156.42
827.393
1024.54
664.833
1267.9
1226.44
954.036
941.136
839.221
1064.99
742.527
1166.3
1009.85
821.085
1102.52
1143.07
1003.61
595.547
573.496
1060.72
1226.22
997.873
899.111
1116.4
1190.61
1011.82
1154.95
1203.15
1089.02
862.896
1064.57
1500.52
773.144
1023.09
1385.61
1012.24
818.264
1214.83
1468.98
1213.01
1273.73
1378.01
778.405
829.383
999.929
859.574
884.777
1080.45
1285.84
)
;
    }
}


// ************************************************************************* //
