/*--------------------------------*- C++ -*----------------------------------*\
| =========                 |                                                 |
| \\      /  F ield         | OpenFOAM: The Open Source CFD Toolbox           |
|  \\    /   O peration     | Version:  2.4.0-MNF                             |
|   \\  /    A nd           | Web:      www.OpenFOAM.org                      |
|    \\/     M anipulation  |                                                 |
\*---------------------------------------------------------------------------*/
FoamFile
{
    version     2.0;
    format      ascii;
    class       volScalarField;
    location    "5e-05";
    object      translationalT_Ar;
}
// * * * * * * * * * * * * * * * * * * * * * * * * * * * * * * * * * * * * * //

dimensions      [0 0 0 1 0 0 0];

internalField   nonuniform List<scalar> 
77760
(
307.956
311.092
345.626
346.543
343.216
314.364
336.465
313.017
507.497
1285.83
347.481
357.212
301.022
292.211
297.435
291.52
294.879
353.417
507.396
885.194
298.869
300.62
296.141
293.638
289.415
288.71
295.266
339.966
633.866
643.671
285.697
289.593
297.267
288.854
290.088
307.66
309.214
390.684
446.362
555.413
306.419
298.364
294.592
299.034
308.852
306.472
311.866
389.939
417.512
571.525
283.305
279.292
280.989
275.878
272.03
278.555
355.491
451.129
479.551
476.213
282.301
288.902
290.571
285.839
279.671
331.932
281.783
339.329
346.067
420.783
310.473
304.019
296.66
292.248
287.176
291.786
291.445
302.597
324.565
761.055
298.081
302.67
305.209
299.078
295.111
291.468
292.854
347.179
312.984
824.028
296.939
289.723
286.623
288.784
292.521
296.031
291.096
297.502
404.819
623.636
284.114
289.648
302.048
309.173
306.678
308.734
300.33
292.342
327.992
498.041
307.365
313.979
307.244
319.677
323.237
307.262
312.928
306.593
319.253
526.512
308.22
317.734
316.668
310.154
307.769
324.397
351.611
324.823
424.014
636.523
288.088
286.734
288.499
300.466
297.106
313.545
312.411
359.914
437.923
914.697
297.055
312.323
314.062
331.128
329.056
325.914
347.595
316.185
363.11
677.959
315.82
313.38
308.75
302.405
303.387
312.693
305.901
299.455
530.395
912.216
304.699
304.249
308.968
308.869
321.012
315.577
305.316
311.76
400.867
858.713
310.509
312.266
294.714
303.096
304.065
300.724
294.342
315.495
437.611
601.4
296.449
293.144
291.648
293.031
295.219
292.512
292.017
427.104
326.884
704.908
292.483
298.752
302.156
302.858
299.274
299.159
300.227
308.253
447.935
660.833
306.073
309.127
303.775
295.592
311.071
310.982
307.794
342.38
415.939
602.169
293.083
302.785
303.378
305.12
304.444
314.05
353.438
352.566
374.458
668.553
307.738
312.57
305.257
319.84
308.567
313.424
406.322
341.894
477.793
673.82
307.841
295.41
299.907
303.74
312.134
305.391
341.165
370.238
393.733
663.21
294
308.918
299.826
293.902
284.486
283.709
289.97
290.799
361.191
746.713
297.94
287.527
280.029
286.262
279.366
281.543
289.796
283.206
280.329
639.529
290.863
278.54
279.906
286.88
293.403
299.163
359.661
297.98
353.188
482.171
298.016
300.243
287.633
275.497
277.288
290.91
316.318
375.621
350.801
467.48
290.483
294.009
309.245
312.76
305.273
303.559
302.412
300.669
395.429
779.395
305.575
308.326
308.079
315.571
319.554
318.43
310.311
315.16
337.966
699.185
293.155
300.34
302.255
297.981
303.584
301.889
299.062
318.997
458.601
681.158
313.073
316.998
318.145
304.767
305.362
305.371
298.495
387.246
388.175
568.319
303.843
296.828
293.403
297.82
297.284
320.569
312.079
323.3
369.576
554.599
294.334
307.797
302.357
296.257
311.125
303.477
301.158
314.977
469.815
717.258
283.141
276.62
284.7
281.236
269.234
281.915
291.626
336.412
309.257
482.975
291.119
300.043
295.289
290.623
295.071
294.874
292.273
302.769
312.486
348.822
305.831
304.502
307.92
312.207
320.055
359.895
357.758
397.233
676.642
1076.33
295.099
291.448
291.657
288.607
284.097
297.028
360.578
479.558
402.39
906.397
286.484
293.783
294.94
290.026
328.754
370.057
377.825
389.888
501.455
784.773
298.576
298.147
305.49
350.195
350.69
296.751
287.655
358.597
513.942
520.795
277.684
281.197
327.973
330.769
295.01
285.653
294.345
415.473
404.316
586.482
274.125
337.888
313.981
304.963
316.6
316.509
315.88
328.793
415.537
502.06
306.227
310.528
303.346
290.052
303.534
302.526
300.943
311.311
337.372
546.555
293.33
288.021
291.282
296.759
307.492
299.316
290.302
385.487
451.945
665.588
285.518
285.608
275.723
272.871
274.355
280.904
286.434
418.311
536.45
623.144
298.812
296.231
294.251
290.923
286.438
286.714
370.966
324.962
428.243
623.278
293.72
306.959
296.886
288.482
299.725
292.728
370.662
427
362.483
586.289
298.923
280.472
303.287
308.748
298.385
310.006
362.697
385.878
465.818
465.07
290.498
295.488
296.636
289.937
292.133
297.777
328.307
305.071
439.817
617.276
297.563
297.724
287.991
293.996
291.897
285.733
316.075
303.477
357.313
618.671
309.696
304.41
303.482
292.895
299.264
304.449
321.008
408.818
359.427
659.233
298.025
300.714
299.711
312.007
316.118
324.874
354.562
492.325
555.133
631.051
309.879
305.819
307.354
308.365
299.763
298.415
306.95
307.12
446.613
704.212
323.789
314.141
313.517
304.506
302.328
310.942
321.238
353.408
469.503
426.635
298.825
306.345
315.109
310.874
320.177
317.857
316.25
324.524
401.85
507.164
320.047
310.062
296.224
290.93
289.473
279.512
368.075
320.314
453.276
611.057
298.63
298.336
291.055
291.698
295.686
298.661
298.084
331.163
343.683
560.614
269.114
279.884
291.17
297.753
298.132
361.602
384.512
459.929
445.441
560.582
304.977
297.651
298.938
292.027
294.224
298.877
302.973
357.09
527.452
729.017
307.417
308.767
308.473
296.555
291.045
306.529
315.02
400.579
510.08
572.291
299.551
285.727
296.171
308.423
301.904
286.613
362.007
501.479
503.912
564.482
311.986
315.279
302.77
296.008
290.028
294.258
287.921
388.293
346.027
583.422
303.121
305.791
313.98
300.366
290.796
290.65
290.585
291.592
458.51
674.406
288.511
294.488
292.936
299.436
303.346
298.747
308.562
304.931
410.856
660.527
270.206
280.971
278.338
282.355
292.649
302.655
297.222
341.366
527.31
690.006
298.608
287.877
285.289
293.392
288.108
282.061
285.225
316.565
356.731
559.793
288.39
294.657
295.23
296.689
303.12
304.206
298.692
299.473
359.971
615.173
288.191
279.59
291.019
294.569
301.961
282.355
287.919
295.53
357.828
384.061
310.001
298.452
290.01
299.787
301.053
289.007
288.594
327.797
433.422
577.489
305.851
298.121
293.164
304.872
290.765
308.886
313.119
325.247
353.05
528.473
279.735
281.518
286.376
289.014
296.367
295.67
355.463
370.618
461.719
575.163
301.81
294.299
303.7
310.085
312.194
313.428
303.598
300.774
301.906
457.722
320.314
313.925
313.095
307.241
303.572
306.211
297.271
413.805
579.294
1015.52
292.009
300.134
284.101
280.777
283.153
289.206
292.689
424.692
614.089
880.835
305.844
301.069
292.819
293.024
304.296
375.858
312.34
305.357
339.489
546.025
295.888
300.849
295.998
295.356
288.183
291.823
278.445
318.361
337.675
575.443
317.113
306.329
303.991
301.589
307.957
325.621
315.887
375.85
451.788
493.085
273.82
275.735
290.109
293.74
303.922
311.014
371.799
376.644
321.021
419.328
291.054
305.68
295.322
287.643
321.542
273.268
327.178
471.139
424.871
521.444
290.222
305.012
301.471
295.267
328.413
319.471
323.404
378.198
475.363
519.334
320.17
317.352
302.56
304.34
298.528
362.756
393.27
312.704
458.864
412.934
300.219
300.088
316.731
315.371
297.31
307.309
329.591
314.997
322.794
367.113
304.998
318.067
310.419
305.731
315.113
306.423
300.39
292.196
308.685
381.101
297.825
299.2
310.126
314.871
303.951
291.483
373.503
423.552
431.695
391.145
309.123
313.628
304.504
307.154
301.99
310.006
308.446
347.567
433.752
511.912
276.876
280.734
282.101
286.146
292.776
293.574
304.227
319.991
424.142
541.097
284.864
275.523
274.162
294.011
296.976
288.898
318.719
323.839
393.799
505.469
294.446
297.586
308.462
356.529
356.936
386.09
401.849
446.824
548.06
624.958
302.777
299.283
300.687
306.463
306.342
322.763
318.875
338.061
458.364
531.007
299.933
306.094
308.116
305.677
308.603
294.243
320.503
348.601
386.922
358.82
302.797
301.131
302.967
305.269
310.14
323.477
394.116
427.153
472.725
392.567
302.404
304.194
303.023
305.651
299.288
315.001
337.405
387.982
498.004
462.821
310.392
298.553
296.483
288.417
278.772
291.548
339.558
376.563
432.387
611.787
285.959
288.607
286.201
284.514
289.973
286.837
305.008
281.542
310.692
513.935
286.659
291.847
300.859
299.366
299.836
302.661
313.865
355.839
441.919
632.538
294.56
300.71
293.575
298.065
304.518
316.719
337.571
331.26
353.883
409.19
296.897
297.117
297.717
287.485
301.105
302.902
353.761
317.854
384.753
474.389
291.242
289.441
290.319
290.779
300.492
295.608
289.246
307.027
462.822
549.454
295.496
292.098
282.437
282.341
285.867
294.552
290.137
299.584
422.906
381.539
303.441
293.957
297.349
302.317
310.809
303.934
305.408
310.53
493.644
493.619
291.293
299.407
293.798
291.384
291.155
289.47
284.063
338.753
428.355
535.461
306.519
305.71
307.308
304.319
297.832
298.899
282.317
311.381
344.614
428.828
307.869
311.893
292.793
288.873
284.335
282.401
303.602
321.171
387.759
428.686
294.019
299.652
303.144
305.728
317.086
304.577
316.438
411.414
400.102
441.578
295.319
299.448
287.39
290.64
298.596
307.087
295.019
348.926
438.642
472.989
320.988
330.2
334.285
313.235
326.558
354.226
310.365
306.544
335.923
390.112
291.779
302.672
299.776
300.213
300.463
308.237
311.527
413.734
401.328
375.033
305.52
308.063
294.167
291.083
293.322
289.291
353.657
306.054
321.935
331.738
288.569
284.948
281.95
278.056
290.821
291.798
363.503
458.015
402.114
655.514
300.497
298.57
301.839
301.787
304.229
311.044
457.98
491.524
519.247
584.12
290.243
289.92
298.011
295.63
312.035
310.565
293.54
464.921
576.387
562.153
312.007
304.159
324.719
284.887
282.724
289.077
353.24
452.936
318.113
547.556
283.073
281.764
345.049
304.547
295.099
300.639
292.558
331.925
347.87
484.399
292.492
282.149
295.785
374.324
306.338
310.594
345.994
302.188
331.945
372.055
296.153
296.602
297.355
338.102
357.167
341.434
366.108
351.386
379.166
430.99
308.329
307.212
301.046
302.673
308.349
319.617
371.692
301.483
372.999
319.999
295.924
292.307
305.348
319.633
323.966
309.065
302.924
366.203
411.418
358.433
288.662
293.069
295.004
299.287
301.566
301.073
300.082
345.605
349.033
501.391
266.854
253.918
270.755
285.171
295.904
296.61
356.231
333.744
295.449
385.199
317.858
317.412
317.792
305.147
354.199
384.423
307.874
425.35
304.548
429.833
318.018
306.601
312.702
311.966
298.373
294.193
305.264
312.907
396.305
374.657
301.687
314.472
309.462
304.211
315.813
298.947
309.856
419.176
376.524
408.411
313.927
323.173
323.606
310.43
294.8
290.294
297.676
385.755
345.377
331.284
307.138
342.369
352.15
292.437
308.25
368.877
335.117
382.74
409.125
301.16
354.966
331.429
301.34
319.22
356.883
299.219
299.26
315.989
433.043
558.504
305.632
308.881
313.782
311.634
302.756
306.761
298.504
288.875
304.584
349.641
316.469
309.914
293.473
305.788
327.931
354.946
455.626
412.762
382.991
351.551
287.581
294.277
298.919
306.696
297.49
307.591
298.059
303.391
475.192
282.532
303.225
301.045
306.863
312.442
326.432
314.543
431.146
316.618
331.925
400.579
293.878
284.841
294.407
307.21
298.57
312.849
316.691
300.379
346.164
493.627
285.586
291.434
289.313
289.358
293.286
301.175
308.909
296.636
324.849
612.827
296.179
300.144
316.874
328.856
328.31
328.897
324.14
394.818
468.492
333.605
292.15
285.382
298.497
303.43
304.559
307.805
302.812
292.882
336.969
374.622
293.289
289.449
279.896
287.912
292.795
285.15
279.812
368.716
353.956
448.983
299.764
292.93
291.02
289.306
287.325
297.281
298.535
416.171
362.909
543.533
321.916
317.406
312.565
305.215
310.894
308.222
310.836
423.606
357.622
348.376
296.046
294.098
307.587
305.65
296.401
289.022
346.11
295.24
374.02
428.024
320.019
312.364
307.585
295.135
298.285
299.744
314.631
389.368
327.694
295.232
314.454
308.878
302.584
296.151
288.09
294
286.329
311.73
310.252
336.738
289.808
280.88
291.376
304.777
311.988
316.467
343.435
331.779
506.927
533.104
298.802
305.364
316.97
312.505
305.219
324.793
353.492
342.939
356.464
331.13
287.705
287.926
281.579
289.993
295.241
297.348
291.949
342.055
401.331
390.624
305.026
303.088
297.598
305.621
304.886
307.032
316.253
322.349
336.371
319.165
319.394
307.148
294.872
286.041
298.854
345.473
343.848
278.44
284.678
309.557
284.389
284.317
285.565
304.717
310.377
307.701
384.369
345.591
398.68
574.468
289.068
301.212
290.929
335.894
355.161
392.811
424.178
366.217
358.118
468.111
298.583
292.476
298.853
313.62
316.494
310.413
315.078
365.767
372.093
458.485
303.07
317.046
299.608
308.044
300.566
316.77
297.914
301.439
442.194
541.166
310.639
332.58
320.122
296.971
297.163
375.858
301.924
290.986
413.911
409.405
310.318
319.398
319.668
318.079
326.137
425.755
325.785
460.876
311.812
289.419
303.941
293.091
297.874
306.818
310.383
313.808
330.699
360.741
318.051
322.463
300.431
300.965
308.71
312.149
316.47
313.466
317.111
315.237
379.152
324.408
299.384
303.388
297.355
292.922
291.541
294.815
325.311
310.183
326.122
456.539
319.778
323.667
306.065
316.944
319.685
390.523
314.832
315.592
327.495
393.785
299.253
297.5
329.265
313.419
286.657
288.961
319.339
312.768
299.463
407.298
284.649
294.436
299.475
345.085
312.533
287.646
306.629
382.614
318.578
382.419
294.637
294.637
294.191
284.64
294.437
302.609
347.784
292.268
305.627
333.097
296.088
302.69
316.5
318.894
309.897
380.45
375.272
362.095
311.012
380.31
322.329
318.826
303.966
301.373
299.776
295.01
292.587
293.429
299.032
335.03
295.486
297.145
311.292
343.362
370.729
366.107
337.641
307.537
351.311
361.542
351.475
326.678
304.532
290.238
317.569
378.978
313.8
450.991
409.765
353.545
303.958
303.996
312.839
328.478
326.339
312.105
296.709
335.912
358.554
356.738
297.818
300.755
303.31
296.024
307.422
327.839
342.675
384.075
386.609
296.148
299.812
306.89
334.275
357.806
359.954
377.988
290.617
283.468
319.932
322.43
302.948
304.744
299.946
295.475
371.581
354.394
297.934
281.925
287.977
349.307
309.766
294.531
289.549
289.561
298.789
308.113
284.764
301.81
382.301
379.323
285.061
293.417
295.625
304.922
305.766
294.226
300.226
343.253
368.008
414.628
295.159
298.725
299.034
302.552
306.003
301.179
299.741
355.905
335.232
362.205
297.019
314.5
306.543
305.03
304.367
297.528
292.772
286.885
324.642
346.245
313.388
308.867
310.939
306.63
301.194
306.129
337.847
436.284
380.192
413.366
281.204
295.447
309.972
308.218
309.197
300.898
323.994
363.29
361.953
412.69
312.326
325.281
323.683
319.156
308.612
299.857
322
355.702
346.527
359.307
308.604
298.909
302.466
296.605
300.376
302.85
314.82
366.283
320.141
447.872
297.11
293.854
302.565
312.814
314.594
302.191
328.343
324.25
317.944
301.742
311.69
312.202
293.004
277.28
278.872
303.888
350.814
346.525
291.728
400.693
298.787
307.288
311.697
317.171
311.523
313.489
308.169
372.936
376.285
311.615
327.319
306.596
288
286.127
286.752
290.769
311.513
342.998
387.209
339.265
277.512
274.443
286.217
286.176
300.208
308.036
319.635
341.588
338.209
399.285
305.942
310.543
308.804
306.965
297.122
303.861
296.142
302.573
346.022
359.45
289.28
294.019
296.509
297.254
298.629
312.322
306.292
299.879
317.573
348.396
289.294
328.406
355.882
361.538
333.074
304.884
304.754
331.37
472.878
746.098
326.948
324.471
316.409
304.17
312.293
369.215
377.638
392.299
473.862
618.648
317.842
311.517
312.388
327.466
304.006
299.519
390.654
381.33
646.248
669.483
288.004
299.885
294.663
287.669
277.639
271.416
295.339
375.729
459.764
384.828
289.167
278.474
284.574
285.207
285.603
279.402
277.392
318.541
314.882
357.643
320.868
315.825
313.234
299.763
291.663
318.121
355.623
324.044
310.677
327.91
300.07
284.737
287.044
295.531
295.722
321.955
320.705
314.973
331.478
349.079
303.494
299.23
298.889
307.02
306.937
294.861
285.119
286.753
373.981
278.568
285.016
288.496
292.359
281.043
346.935
311.405
326.983
346.242
310.097
341.208
292.981
308.521
311.042
305.731
299.577
321.253
308.099
307.069
313.955
341.405
315.307
310.554
309.82
306.129
310.231
324.492
330.571
306.958
364.294
364.459
302.395
295.318
293.022
300.804
300.239
300.49
345.925
301.464
309.935
368.561
304.489
295.829
293.189
303.603
309.515
302.92
342.765
319.899
327.847
315.011
298.113
297.965
295.355
333.284
356.199
289.337
328.763
300.08
307.712
312.31
303.991
285.724
292.833
285.152
285.601
281.108
303.109
286.673
294.315
333.182
288.823
298.686
299.834
300.584
336.077
323.19
302.866
297.076
302.482
360.372
305.351
304.224
296.694
288.525
282.468
289.501
395.764
385.877
347.493
388.864
280.63
289.351
305.965
305.538
315.098
312.807
309.439
304.299
297.416
391.213
284.916
285.856
281.378
291.816
332.853
350.317
312.375
382.332
316.801
314.67
303.868
309.734
322.07
307.292
303.598
348.151
287.569
307.04
298.405
346.886
263.718
283.496
286.826
301.466
289.419
292.561
293.736
291.558
279.078
355.888
296.692
286.907
277.358
276.464
303.301
296.636
296.16
327.608
313.821
320.587
287.869
287.525
289.039
285.011
281.634
276.844
285.447
320.101
319.394
362.975
276.459
303.136
294.162
282.165
281.892
294.256
317.082
315.63
291.514
374.71
307.306
292.065
279.378
288.445
289.423
289.473
294.059
321.105
293.513
359.191
282.645
280.415
281.849
286.741
299.035
299.703
327.545
325.543
284.693
355.797
303.511
298.749
292.107
293.629
298.349
289.004
306.443
435.388
371.806
357.841
303.622
289.544
288.839
279.11
281.383
290.311
387.523
303.592
291.572
338.983
278.525
300.006
299.485
298.893
303.56
305.785
319.371
306.972
355.987
357.384
295.713
296.056
291.871
287.405
279.571
289.038
338.551
298.821
301.765
276.226
294.07
293.247
294.204
301.06
298.847
300.267
344.369
309.328
289.827
384.27
293.895
287.234
297.795
290.338
295.616
311.209
313.905
343.53
313.971
323.611
291.599
293.242
309.757
303.525
283.597
288.748
299.144
399.391
351.034
308.202
287.239
281.781
292.556
296.803
312.664
299.872
356.168
367.238
306.401
362.374
277.317
279.852
286.663
291.464
293.22
303.206
292.481
337.315
351.644
308.425
310.251
315.593
318.639
309.886
313.289
315.286
307.424
309.581
308.643
309.441
285.194
290.997
301.988
300.607
324.026
362.574
400.054
397.949
412.846
759.38
294.601
286.622
284.877
310.565
410.784
354.563
339.403
351.442
440.605
792.073
295.313
311.044
318.862
353.406
382.844
310.895
310.442
399.165
510.882
526.985
291.357
290.139
305.888
307.75
315.678
383.315
324.284
396.531
454.425
457.715
294.611
302.778
307.767
310.561
330.333
363.276
336.463
334.532
409.845
347.671
301.808
301.15
294.163
288.084
293.059
317.052
340.784
318.108
376.434
334.191
310.686
316.687
326.482
320.135
308.477
308.939
311.532
295.929
312.002
316.05
291.819
305.227
306.429
310.815
301.637
290.372
309.163
317.806
333.54
327.758
319.192
313.394
316.38
306.424
305.005
314.153
310.422
358.584
324.58
341.537
313.335
305.06
308.999
323.468
319.923
335.51
307.919
303.993
310.754
310.951
301.482
322.402
322.06
324.522
307.559
328.092
330.282
319.312
310.789
356.609
299.627
301.408
306.041
323.059
327.813
303.107
310.531
333.839
289.301
339.486
292.2
299.103
296.632
282.195
278.315
290.567
295.852
302.239
311.337
313.725
305.45
303.133
360.44
314.599
298.723
308.217
299.872
297.74
304.721
306.352
310.012
312.037
302.482
303.772
297.897
301.234
328.788
294.094
322.455
280.568
292.24
301.488
299.752
292.858
284.66
282.554
284.916
290.738
335.284
354.917
298.586
293.306
290.128
301.106
309.657
317.901
332.296
299.619
295.395
311.019
302.012
303.503
309.028
310.37
303.172
317.317
308.276
320.125
361.166
302.963
295.239
300.224
300.986
302.816
336.085
292.506
297.894
324.861
308.912
303.087
300.242
299.179
303.738
306.204
290.963
292.595
321.451
329.261
314.496
353.929
295.979
292.939
292.775
292.947
309.446
334.969
267.888
287.362
279.002
277.824
283.772
277.986
295.527
314.819
309.614
320.691
304.873
337.789
309.123
329.894
302.344
298.436
302.504
292.968
291.871
303.744
315.031
311.653
308.411
304.175
279.736
276.425
271.643
290.608
295.03
284.477
329.216
300.905
301.452
306.943
299.842
293.782
291.225
291.534
289.94
306.931
301.542
299.31
303.671
291.583
299.75
289.835
291.364
288.466
295.922
291.851
350.878
292.3
327.255
299.317
299.721
298.843
290.841
287.445
294.018
294.654
293.69
319.479
330.753
415.644
312.089
304.069
294.296
291.241
287.81
321.182
318.003
355.701
300.002
321.228
311.063
320.51
321.249
320.615
319.608
316.477
358.726
325.059
357.528
314.602
306.757
289.883
299.132
308.173
314.149
314.906
321.907
317.065
328.259
331.187
314.566
333.155
318.669
304.22
304.593
303.933
306
336.703
320.399
396.904
314.268
299.432
294.878
296.817
302.032
312.414
310.405
310.061
310.078
333.007
292.226
327.318
311.693
311.846
317.818
303.152
311.544
324.487
406.2
341.37
301.47
303.576
301.078
287.879
280.367
360.729
301.37
295.905
281.856
290.371
294.38
305.638
299.171
293.14
290.821
286.594
296.696
292.018
302.397
303.356
298.609
292.991
302.641
304.397
312.255
301.489
284.917
300.622
315.192
322.066
296.385
302.865
308.529
312.783
311.618
303.452
307.827
300.821
334.715
659.818
285.569
286.891
292.539
308.18
333.911
368.893
378.805
375.994
487.609
593.574
321.243
321.838
314.637
349.789
287.921
289.393
311.536
333.482
480.942
463.941
315.326
305.156
313.311
327.854
308.238
296.169
291.295
308.915
373.962
408.031
287.416
287.313
284.654
294.412
280.459
340.417
331.856
357.494
383.268
370.556
298.992
301.983
309.266
320.063
313.777
310.104
314.892
334.797
313.19
328.579
307.74
298.586
293.38
286.75
299.315
289.257
337.923
349.514
334.511
316.375
297.841
295.035
298.15
306.665
300.851
306.591
308.994
346.119
302.71
338.825
316.357
315.06
302.666
299.663
294.594
299.744
299.955
305.766
304.071
331.914
293.533
283.596
292.949
286.698
299.693
292.317
284.444
292.399
284.279
307.361
305.889
306.949
306.344
308.028
312.66
363.161
300.065
308.413
308.373
322.874
277.177
278.337
282.302
295.028
293.54
307.718
358.969
305.351
330.667
355.041
315.688
311.71
310.321
289.554
289.763
297.606
305.719
310.282
311.719
313.916
296.547
286.585
306.249
308.374
318.336
315.248
317.435
307.893
314.341
349.086
292.313
292.596
306.997
303.929
294.774
346.179
309.502
314.738
319.87
327.939
318.526
321.971
322.635
303.137
305.47
297.486
290.03
292.898
327.798
383.339
298.716
293.662
283.936
294.211
304.95
354.451
309.015
324.397
329.778
290.93
289.694
296.444
299.684
294.708
285.288
283.412
299.654
296.9
291.057
298.258
316.07
313.78
297.321
292.34
310.024
320.861
306.295
324.183
315.491
315.385
308.086
311.105
309.35
307.636
304.818
304.667
300.135
297.987
308.263
313.413
307.505
304.745
296.93
283.532
295.664
306.799
299.4
293.204
303.228
354.683
305.138
294.017
289.399
303.505
308.764
295.548
292.009
301.422
292.33
299.504
308.667
326.226
327.829
316.218
310.63
302.383
295.82
290.832
287.7
284.968
314.706
314.032
318.019
301.573
295.208
301.399
321.268
307.998
298.632
291.742
291.304
292.422
289.037
306.872
314.806
310.066
298.496
298.05
301.479
305.72
306.297
307.758
304.54
293.232
291.979
335.678
289.106
298.074
351.003
314.173
305.027
291.23
291.969
302.748
308.627
301.205
302.711
288.276
312.943
376.496
291.527
290
297.352
289.241
288.546
333.939
291.427
313.747
323.574
302.041
296.367
301.767
306.859
304.101
301.083
308.738
302.881
365.095
300.723
298.358
291.23
305.24
306.464
310.573
292.504
285.158
331.566
302.147
308.534
337.576
296.471
289.397
298.217
299.26
289.974
297.12
322.842
294.475
287.117
294.049
314.94
316.264
319.086
333.593
326.583
316.535
321.748
305.912
304.312
359.378
300.428
297.134
302.42
310.733
325.477
314.797
306.797
300.882
339.181
311.366
295.761
298.169
300.546
303.003
305.905
319.282
292.45
302.177
313.212
308.219
324.414
312.609
308.201
311.305
308.213
311.285
311.045
318.102
303.618
295.717
296.517
292.873
300.548
305.572
306.61
301.858
299.655
297.6
285.175
283.616
301.578
307.048
302.56
300.616
297.872
303.665
298.753
315.327
362.602
660.472
295.102
284.111
278.969
279.443
283.472
303.102
349.661
326.675
497.516
526.531
321.193
317.389
317.078
324.221
328.916
322.355
341.405
366.721
310.638
391.189
303.623
299.665
343.239
310.719
305.652
309.45
338.822
282.991
306.461
518.622
293.928
293.82
308.173
303.646
310.197
324.056
369.2
321.291
386.543
364.152
292.861
279.483
284.95
289.629
302.208
301.244
294.041
360.153
317.467
326.516
303.11
305.184
300.04
293.307
285.744
288.099
353.675
307.157
305
357.013
287.607
282.734
286.185
292.397
308.509
312.982
320.226
323.993
316.662
341.339
312.848
313.66
320.611
308.957
305.15
295.038
292.249
284.196
293.356
321.684
290.153
280.998
291.332
299.65
357.698
308.576
304.541
298.244
293.949
294.8
299.443
300.436
295.491
299.647
304.043
325.707
318.345
321.4
303.695
348.78
294.308
291.751
293.773
292.363
288.34
285.366
287.633
285.571
291.885
307.412
291.809
299.706
286.129
284.905
273.736
280.952
287.348
291.735
302.501
307.868
302.072
297.718
291.42
298.613
314.434
321.605
322.045
313.287
315.501
308.245
286.912
295.448
287.329
295.901
301.648
326.475
301.715
287.795
286.887
308.47
279.715
273.366
291.711
282.401
294.409
324.217
304.62
295.749
283.475
312.755
288.336
287.104
287.692
294.537
342.081
287.96
281.8
333.312
299.677
319.8
296.029
297.143
299.844
292.724
293.841
293.076
294.909
289.107
288.462
292.628
301.741
308.165
295.272
296.508
283.926
288.247
290.229
302.389
299.614
295.087
294.518
296.579
302.401
298.951
306.89
307.929
303.518
285.172
273.776
277.149
295.991
297.35
305.214
308.816
299.765
302.725
308.03
313.758
317.1
311.291
300.518
303.419
299.049
296.204
304.289
313.318
309.241
307.251
318.889
311.905
305.09
302.999
298.173
296.601
305.341
308.407
309.278
302.029
288.377
286.602
270.958
278.558
289.793
301.769
294.518
290.4
284.421
293.259
295.549
302.407
294.744
296.202
284.597
278.826
281.439
299.576
306.719
312.165
308.044
310.664
297.073
298.385
320.552
321.779
305.474
345.242
302.357
296.82
343.166
352.454
272.551
277.25
262.535
263.513
261.136
267.658
291.89
297.297
363.86
305.825
294.046
286.811
284.622
276.637
285.504
295.981
302.389
290.195
288.065
312.337
279.623
284.018
289.992
286.633
308.225
295.711
320.496
347.891
298.432
310.654
292.982
279.319
261.997
273.53
279.872
291.813
291.527
305.108
315.342
311.204
303.604
311.573
319.46
307.474
302.983
330.343
291.066
296.579
298.054
299.396
303.99
316.233
314.937
303.805
290.559
312.444
286.312
300.494
315.95
343.395
296.948
301.428
300.668
306.626
300.462
284.602
278.405
274.191
291.072
272.728
308.908
303.859
289.831
281.928
287.865
291.419
291.841
291.185
294.564
297.127
291.703
305.635
313.542
315.014
313.354
305.98
303.033
286.858
293.418
305.675
282.412
297.707
291.671
291.491
288.818
283.853
297.272
306.642
291.374
274.385
292.259
295.245
301.52
295.14
302.588
302.933
328.005
317.05
360.174
602.719
294.488
282.997
287.656
292.041
285.956
298.681
382.518
424.534
545.687
617.566
301.541
305.524
292.211
287.939
294.101
374.82
327.336
331.944
382.211
483.589
295.094
305.643
302.534
295.121
287.261
297.517
336.572
341.319
332.418
448.923
310.59
312.388
314.517
322.969
312.634
291.622
285.441
317.551
423.245
465.722
309.751
312.664
308.361
304.449
299.152
313.019
327.079
317.326
313.375
449.712
288.992
303.827
299.703
308.901
308.112
309.408
327.621
301.443
308.182
378.358
311.912
302.983
305.042
294.918
302.13
304.899
308.88
302.285
298.782
338.161
313.039
317.536
312.424
311.764
301.709
306.556
305.714
297.268
298.005
342.704
313.258
303.686
290.891
314.044
318.838
295.606
298.918
312.717
302.14
332.456
289.373
291.682
277.615
284.072
286.437
284.276
281.25
282.648
302.77
337.623
285.589
291.111
298.124
294.216
287.052
293.28
304.219
300.736
291.36
295.445
291.957
307.614
302.747
291.833
301.134
298.579
302.01
310.996
297.038
302.128
316.748
310.215
319.639
324.253
315.189
308.703
307.627
322.993
323.062
321.72
281.681
282.354
278.519
288.348
299.438
296.843
305.304
301.497
301.506
280.271
287.47
286.812
283.024
273.785
302.429
303.563
282.162
283.53
291.839
291.589
298.36
306.464
311.48
373.463
336.007
314.309
326.157
370.23
317.954
311.819
305.413
291.271
289.99
307.768
306.07
307.714
316.988
304.294
298.811
292.382
296.202
303.9
312.648
310.687
292.437
307.747
298.743
299.564
312.049
324.008
282.955
274.201
293.194
308.26
323.408
313.866
313.41
318.695
319.884
310.412
296.098
304.093
302.463
305.464
300.419
295.831
285.917
275.473
283.693
302.594
288.723
283.58
293.85
295.492
300.08
304.768
321.02
332.885
328.761
306.813
295.144
299.277
298.313
315.031
318.866
305.983
289.528
287.077
293.903
290.73
300.573
301.786
296.881
288.221
294.513
304.775
307.712
296.914
289.65
290.539
298.959
300.618
299.498
307.968
311.273
312.593
315.014
310.138
303.159
333.223
306.162
303.96
301.536
295.434
312.397
305.516
289.255
280.1
320.699
282.188
290.323
290.734
307.758
308.283
297.441
292.264
287.043
323.195
296.44
296.214
308.92
304.34
300.022
310.421
312.548
301.27
286.169
281.375
286.1
280.309
294.269
289.222
293.707
289.136
292.022
291.031
297.021
313.053
289.991
281.236
283.529
298.471
304.356
292.287
282.202
302.85
310.386
305.191
294.229
309.682
320.06
300.476
307.462
321.489
325.442
327.704
316.744
312.343
309.155
299.285
308.361
304.357
289.792
280.444
286.183
294.667
301.59
314.025
315.72
322.501
289.046
299.333
291.789
281.138
293.092
302.643
303.464
307.311
317.329
294.197
300.619
297.986
308.928
310.636
307.524
295.316
310.666
309.832
301.607
295.59
319.715
311.009
297.914
286.08
293.36
305.544
305.005
311.051
300.867
292.941
308.726
318.409
314.927
306.346
297.575
301.824
302.894
297.324
303.172
306.728
301.727
306.435
310.536
288.821
293.765
371.521
315.333
392.429
529.845
670.905
295.131
296.127
292.091
294.001
295.19
294.692
299.973
363.501
508.636
775.144
293.688
300.201
309.392
299.597
352.328
309.341
336.391
319.324
301.878
581.464
326.178
321.89
322.714
318.725
314.673
304.354
308.223
346.259
325.766
486.942
299.937
294.124
286.175
287.67
296.72
304.914
302.938
307.663
333.214
429.295
295.746
297.038
301.474
294.441
295.723
301.64
345.854
316.569
341.214
332.738
294.53
294.656
294.055
291.743
282.486
292.75
310.337
296.284
295.401
325.657
309.373
295.895
291.311
290.249
299.968
310.132
299.445
296.046
313.334
323.522
294.243
290.389
300.358
296.709
299.971
296.606
287.316
290.968
336.062
302.674
316.189
317.42
319.225
327.44