/*--------------------------------*- C++ -*----------------------------------*\
| =========                 |                                                 |
| \\      /  F ield         | OpenFOAM: The Open Source CFD Toolbox           |
|  \\    /   O peration     | Version:  2.4.0-MNF                             |
|   \\  /    A nd           | Web:      www.OpenFOAM.org                      |
|    \\/     M anipulation  |                                                 |
\*---------------------------------------------------------------------------*/
FoamFile
{
    version     2.0;
    format      ascii;
    class       volVectorField;
    location    "5e-05";
    object      UMean_Ar;
}
// * * * * * * * * * * * * * * * * * * * * * * * * * * * * * * * * * * * * * //

dimensions      [0 1 -1 0 0 0 0];

internalField   nonuniform List<vector> 
77760
(
(1946.27 -6.29912 -3.03839)
(1939.53 6.99885 8.33257)
(1931.07 21.3545 7.22001)
(1924.28 18.4467 -4.42151)
(1923.26 5.40532 -18.2446)
(1921.91 5.32639 -8.61394)
(1919.26 0.744672 6.31725)
(1927.02 -1.43181 9.79253)
(1881.35 -1.55794 24.5861)
(1663.68 24.5748 20.7487)
(1920.43 21.3129 1.06918)
(1916.07 7.56827 -24.9964)
(1923.57 12.7728 -23.1527)
(1926.15 16.4187 -6.86279)
(1917.1 7.4334 3.01046)
(1909.91 17.3099 1.99145)
(1922.32 17.3988 -5.17764)
(1910.63 16.162 -1.89892)
(1865.85 22.0977 -4.82325)
(1769.88 30.9671 -10.5075)
(1938.28 9.19293 -5.54744)
(1938.45 3.77847 7.88779)
(1944.79 -3.1707 10.8052)
(1942.58 -13.8067 -0.0929497)
(1943.19 -4.76041 18.1084)
(1941.91 -5.18118 19.1421)
(1936.87 -5.96294 24.189)
(1925.3 1.99032 31.1556)
(1850.35 21.3058 22.5618)
(1839.43 5.52782 27.5302)
(1944.61 -6.25767 5.66697)
(1944.69 1.61985 -4.18274)
(1933.41 -2.63706 -13.338)
(1930.02 4.03263 -8.52777)
(1931.47 12.86 2.17509)
(1928.93 5.306 -1.71856)
(1922.45 -0.856823 -20.1984)
(1910.8 -3.25834 -11.6523)
(1899.66 -1.22857 0.569867)
(1885.19 -7.89328 15.6276)
(1922.21 3.46332 -2.74871)
(1921.26 -7.84024 -1.61024)
(1922.23 -11.4975 1.49294)
(1923.71 -10.6335 0.530515)
(1913.71 -10.7362 -2.68794)
(1913.63 3.72992 5.88378)
(1911.35 16.1848 3.43822)
(1887.92 14.9103 13.672)
(1893.83 1.87108 9.84539)
(1866.17 9.09537 -8.00204)
(1931.9 8.10054 24.0648)
(1939.17 4.89135 16.0939)
(1939.87 9.50238 15.2205)
(1937.25 0.305078 -5.79372)
(1939.47 2.42034 -15.3786)
(1941.12 9.97121 -18.8052)
(1923.95 12.9331 -16.1094)
(1894.61 6.76328 5.05626)
(1886.89 5.36181 4.84334)
(1876.39 5.77953 18.3125)
(1940.62 -8.95696 4.64)
(1933.56 1.09361 16.6162)
(1934.36 8.71418 13.5826)
(1936.92 4.05642 -5.06663)
(1929.11 5.12792 -13.0403)
(1905.73 13.9914 -0.688157)
(1922.6 5.27949 -2.75554)
(1915.66 5.41883 -10.8676)
(1912.05 -2.66139 -10.7506)
(1900.51 -15.7029 3.61234)
(1937.14 17.4614 12.8938)
(1947.11 15.0561 3.93927)
(1943.43 1.57367 2.03487)
(1932.39 -10.6594 5.67131)
(1938.93 -7.24383 -7.34742)
(1942.66 -8.38661 -14.6013)
(1941.3 -10.9177 -0.629055)
(1939.79 -0.785722 5.62285)
(1929.29 13.4985 -9.91153)
(1799.5 14.1354 6.37274)
(1939.97 -2.10485 -1.41217)
(1941.75 -2.74328 -7.20531)
(1947.62 1.18089 -4.3861)
(1945 10.3438 3.33872)
(1945.59 10.8907 -9.0855)
(1940.13 3.75614 11.5083)
(1941.03 10.8834 23.1652)
(1925.86 1.53583 19.2838)
(1940.47 5.78284 -5.57202)
(1809.89 16.0324 22.7052)
(1925.73 -20.5179 2.69814)
(1930.03 -15.7351 7.90987)
(1927.76 3.02043 -0.811542)
(1943.19 13.777 -7.09319)
(1951.29 7.60997 -18.7859)
(1948.93 17.3295 -22.9458)
(1949.42 7.36615 -4.19668)
(1935.33 -11.3669 -2.12995)
(1902.21 -12.7071 -5.72925)
(1844.38 -15.6697 -7.53628)
(1956.87 22.0816 5.31922)
(1957.02 24.2815 -9.37729)
(1946.5 11.0245 -14.4597)
(1934.52 -2.51312 -15.6017)
(1934.83 -14.3277 -15.0436)
(1936.09 -24.7978 -9.26314)
(1944.09 -25.1005 -1.73032)
(1947.93 -13.9022 3.55287)
(1924.72 -5.62567 12.4985)
(1878.37 -0.599432 30.8547)
(1945.17 7.52614 3.06168)
(1947.98 -6.40223 -2.95667)
(1961.1 -9.73808 -8.28915)
(1964.01 0.963888 4.84882)
(1948.07 7.36634 7.21829)
(1943.6 2.35651 5.51321)
(1937.17 -2.60095 4.78108)
(1928.55 -10.3669 -2.24878)
(1921.52 -9.78317 -0.272923)
(1870.21 -13.0098 1.90475)
(1936.9 4.95808 5.06839)
(1934.47 11.2213 3.69719)
(1941.72 17.3484 -6.26496)
(1946.9 -4.58565 -11.2362)
(1949.36 -0.943862 8.81309)
(1944.8 0.175451 16.1386)
(1937.78 1.91442 19.2611)
(1944.19 4.31013 17.0506)
(1923.21 -7.21545 3.46098)
(1867.71 -17.5122 -4.98649)
(1945.29 -4.17068 -11.8771)
(1942.6 -11.5792 -11.3494)
(1935 -7.46294 -7.67634)
(1933.58 -2.20093 6.02168)
(1927.64 -6.17756 14.2547)
(1931.69 6.65519 15.1937)
(1926.64 4.4888 23.7513)
(1923.98 -18.1073 7.58672)
(1907.86 -15.8892 -8.69081)
(1774.76 -16.9937 16.837)
(1937.25 -11.3955 -16.3418)
(1944.24 -11.1997 -5.56324)
(1952.21 -17.1233 10.6223)
(1944.77 -14.6391 13.8896)
(1952.4 -15.3277 1.70977)
(1944.98 -26.7391 -9.87087)
(1939.92 -24.7693 -4.61176)
(1936.79 -3.01947 7.45206)
(1923.91 -5.61904 7.25921)
(1850.04 4.86238 15.5094)
(1931.57 -19.248 -21.7202)
(1937.98 -23.3454 -17.2376)
(1938.48 -4.9741 -30.9591)
(1935.33 -3.07216 -20.4036)
(1943.92 6.56339 2.63951)
(1937.96 1.46178 14.3762)
(1939.09 -5.64936 1.46301)
(1942.52 -11.0735 -16.6876)
(1889.6 -30.5554 -3.81406)
(1778.49 2.47597 7.23215)
(1935.03 -0.175125 2.01658)
(1944 0.248216 -15.8317)
(1952.38 -4.60984 -20.1714)
(1947.26 2.79872 -15.0813)
(1936.67 3.88421 -1.23561)
(1939.11 7.63844 4.80517)
(1937.49 19.1967 5.81981)
(1942.96 30.6304 -2.69101)
(1918.06 34.56 8.55786)
(1794.62 14.553 11.5148)
(1910.8 15.3085 20.7526)
(1916.64 14.9254 23.6129)
(1921.62 16.8247 5.84011)
(1932.05 18.8318 -2.85187)
(1925.91 12.9759 -3.31821)
(1930.4 -3.87539 1.84425)
(1938.77 2.04618 -3.2001)
(1928.2 1.11205 -4.4462)
(1903.06 11.7934 0.681736)
(1864.78 22.5 23.876)
(1928.87 10.6221 -13.0581)
(1937.13 -3.49163 -24.2151)
(1934.85 -7.28795 -3.89411)
(1949.41 -7.71549 19.4774)
(1944.43 -8.93373 24.9558)
(1943.7 -11.6978 10.5705)
(1934.68 -7.37138 3.48351)
(1887.54 -10.4207 7.82769)
(1910 -0.517649 7.5442)
(1831.06 9.4526 22.2045)
(1949.07 -39.6159 10.2523)
(1942.88 -35.1354 5.93435)
(1928.83 -31.3776 -6.60429)
(1921.8 -20.6181 -1.4098)
(1916.69 -5.84965 -2.82304)
(1920.02 10.6918 -1.40107)
(1916.72 14.4627 3.87958)
(1925.6 9.60173 -4.18448)
(1895.75 2.57968 3.30569)
(1835.81 19.991 6.71477)
(1932.87 -16.3777 -0.741143)
(1932.71 -16.2173 -7.19594)
(1931.02 -12.1124 -9.31102)
(1929.64 -8.07858 1.76932)
(1929.37 -0.854768 5.60083)
(1920.59 -1.49246 8.66105)
(1917.95 -0.740443 7.62575)
(1911.95 16.457 4.41802)
(1909.63 13.0188 8.29905)
(1868.37 17.3546 16.7018)
(1936.59 -1.03903 8.58933)
(1927.41 7.02774 7.54072)
(1926.53 7.40269 7.03358)
(1936.03 1.5847 4.32752)
(1940.35 -5.39334 -1.67645)
(1937.66 -5.73955 -1.44755)
(1932.96 -10.6035 5.53109)
(1941.53 -6.05248 2.99857)
(1930.24 -12.3453 17.8154)
(1856.78 -3.70021 25.8467)
(1958.66 -21.3416 17.9425)
(1961.65 -23.1157 25.7202)
(1956.01 -16.209 11.5371)
(1946.8 -9.44657 13.4792)
(1943.86 -1.01587 9.55493)
(1947.39 3.72081 2.81306)
(1917.06 -7.58065 -5.48492)
(1930.27 -10.2374 -11.4702)
(1904.14 -13.824 -3.86265)
(1854.59 -7.30821 13.957)
(1934.84 -4.89628 -21.1518)
(1932.36 4.36071 -11.524)
(1925.88 10.9536 -5.66447)
(1923.35 4.29213 16.2842)
(1931.59 -1.6769 25.745)
(1939.77 -15.1805 10.9106)
(1937.84 -29.2209 3.7842)
(1943.33 -20.4987 2.9934)
(1940.18 -9.97996 0.899783)
(1868.4 -19.7554 -15.8759)
(1931.67 1.33872 3.41232)
(1933.85 -11.6638 13.0188)
(1942.86 -11.1879 16.3795)
(1952.56 -19.9247 5.82516)
(1943.71 -8.7826 1.84111)
(1956.52 3.15442 5.81659)
(1959.19 10.2854 10.3434)
(1970.67 -5.88436 -5.69914)
(1960.41 -17.2223 -12.5195)
(1850.96 0.528395 12.2077)
(1933.95 -5.4759 8.45588)
(1931.34 5.72332 1.63321)
(1939.26 11.5738 -9.11703)
(1930.42 22.0987 -8.963)
(1939.07 14.9724 -1.40907)
(1934.64 2.62924 0.123149)
(1923.93 -0.74522 -8.03913)
(1921.42 15.1114 -8.07703)
(1920.05 11.5983 6.3732)
(1834.85 0.412465 26.7057)
(1916.15 -11.0844 16.6197)
(1927.42 -0.302655 6.78135)
(1933.5 -1.79897 9.10132)
(1934.96 2.53865 -3.42499)
(1918.99 12.611 -1.61439)
(1926 22.3655 2.70369)
(1909.3 15.7864 7.96881)
(1928.45 17.4399 -1.63129)
(1919.05 30.9285 6.02877)
(1897.21 32.6557 15.424)
(1953.29 16.7219 -14.6916)
(1946.55 6.38768 -20.4559)
(1951.06 -1.38633 -7.96382)
(1957.17 1.26226 10.4664)
(1954.99 9.17549 9.55615)
(1951.86 -1.57644 2.29421)
(1942.43 0.441762 -1.90276)
(1919.4 -1.79221 -3.67112)
(1919.73 -5.2444 4.34739)
(1875.89 4.59701 -3.03203)
(1953.65 1.83561 -0.878662)
(1946.91 10.6594 -8.82078)
(1932.9 11.6627 -12.9192)
(1931.03 9.92761 -19.3655)
(1934.92 -1.02457 -13.5343)
(1932.1 -13.9628 -5.31276)
(1939.2 -20.3177 8.95488)
(1933.31 -3.68604 15.7885)
(1909.68 -5.42455 0.295258)
(1813.08 5.79591 11.1525)
(1916.13 18.8116 9.45521)
(1923.12 28.1567 4.88944)
(1921.63 15.6383 -2.63935)
(1917.77 18.6445 0.527483)
(1917.82 11.6667 10.3113)
(1909.5 10.0526 9.03965)
(1914.21 4.23335 -0.53999)
(1913.21 -12.8774 7.67527)
(1903.61 -7.07865 26.5137)
(1811.01 -3.71261 36.7086)
(1932.36 -16.4591 -5.08446)
(1929.85 -22.22 -8.57574)
(1938 -8.66485 0.368594)
(1937.22 -12.2999 -10.0901)
(1930.18 -7.10512 -12.8282)
(1934.3 -9.7799 -1.04069)
(1935.4 7.94186 10.6255)
(1936.23 6.80389 7.77438)
(1899.87 3.18112 -0.84345)
(1842.49 -1.89547 8.55637)
(1958.78 28.9549 -6.69221)
(1952.68 10.9893 -8.62996)
(1954.08 10.2172 -1.29451)
(1952.11 16.3241 7.51763)
(1950.85 10.8429 -4.86601)
(1955.55 8.42147 3.56029)
(1944.58 1.31244 -4.99072)
(1909.83 -11.829 -2.27445)
(1901.64 6.07124 14.0197)
(1847.93 -4.16574 11.4374)
(1955.24 -2.84635 0.0914589)
(1950.9 6.08926 2.96651)
(1947.21 2.60514 -2.36135)
(1949.77 3.13034 -7.1227)
(1944.92 18.4376 -12.1344)
(1933.51 14.7812 -12.9328)
(1930.36 18.1686 -26.0255)
(1922.95 21.6625 -16.0662)
(1920.05 11.1239 1.76057)
(1876.23 3.9013 20.9646)
(1949.65 9.22501 14.2608)
(1951.08 -7.42408 13.5356)
(1944.49 -3.1026 14.5778)
(1928.76 1.29444 7.53357)
(1929.86 -2.38714 6.53206)
(1934.39 -5.44587 13.4363)
(1943.4 -8.53232 3.91385)
(1937.15 -2.81525 -2.25195)
(1911.52 10.5695 13.6694)
(1836.39 -30.8962 25.6123)
(1954.17 21.7802 -10.8258)
(1940.2 23.7785 -29.0025)
(1941.12 7.7068 -18.1334)
(1945.02 2.28905 -5.42712)
(1946.13 -9.12991 0.230862)
(1943.54 -5.09956 -9.8138)
(1943.42 -6.32454 -14.5207)
(1937.76 -7.01924 -7.17242)
(1941.03 -2.14319 -5.6733)
(1892.06 -0.0231722 13.2333)
(1921.2 -3.7542 2.72619)
(1930.93 -1.2754 0.485798)
(1933.17 8.16066 1.97085)
(1937.61 -5.18816 -2.72028)
(1942.75 -1.18698 -13.333)
(1942.01 -5.21742 -26.5514)
(1946.31 -4.50324 -21.2614)
(1943.87 -3.69502 -8.55165)
(1950.4 -1.60706 -8.91122)
(1942.13 6.39948 -9.49221)
(1944.64 7.58643 16.4269)
(1942.97 2.60229 5.54045)
(1939.16 0.481762 -5.03802)
(1940.64 4.97516 -7.52519)
(1941.58 13.0218 -1.32456)
(1941.63 9.39426 -8.55829)
(1946.49 20.4808 -17.5934)
(1930.96 6.74949 -14.9899)
(1852.93 8.35741 6.77614)
(1721.73 22.9743 17.053)
(1943.33 -16.4668 -18.7767)
(1937.04 -4.42374 -16.5566)
(1920.56 3.54741 -15.0522)
(1906.85 13.6994 -6.03708)
(1918.78 22.7565 -5.20935)
(1935.44 8.0743 -6.8632)
(1923.8 2.90164 1.38619)
(1902.7 10.2625 6.59331)
(1913.68 2.72905 4.74642)
(1778.09 21.3529 32.9984)
(1918.26 20.0209 1.25182)
(1917.89 15.6614 12.4832)
(1928.72 8.2865 4.55938)
(1932.65 13.9113 -8.73182)
(1930.47 0.102068 -21.7261)
(1910.11 6.99703 5.44513)
(1906.52 1.69849 19.0128)
(1902.75 10.729 31.5659)
(1884.75 10.9458 41.1678)
(1827.01 25.192 47.9326)
(1916.09 9.1147 15.1178)
(1920.93 13.7949 11.1411)
(1926.18 26.6636 9.18422)
(1919.69 31.3376 1.75587)
(1911.51 34.4862 -2.0934)
(1925.88 13.4185 1.88353)
(1941.18 7.31593 1.20632)
(1915.7 9.49685 -4.64857)
(1885.77 16.5626 -5.74091)
(1881.75 -4.08577 -7.18803)
(1911.96 14.5901 -5.36036)
(1907.15 11.6995 -8.5761)
(1901.56 7.51186 -8.00289)
(1906.08 4.57893 -5.65891)
(1921.74 2.43965 -15.6975)
(1922.06 11.8178 -25.6946)
(1920.17 9.06676 -19.307)
(1902.27 7.33731 -13.4344)
(1904.35 -6.07249 9.10167)
(1853.45 1.61364 -1.63332)
(1948.81 20.82 16.0739)
(1929.61 26.373 22.5713)
(1931.36 25.7515 10.1225)
(1940.72 31.1608 5.19475)
(1941.07 26.805 4.29971)
(1935.32 4.67693 2.1442)
(1932.53 -5.38742 9.68705)
(1926.82 2.84031 11.4156)
(1899.35 18.657 -8.46333)
(1877.95 17.1849 6.36575)
(1952.54 30.5409 2.68168)
(1950.57 3.099 -5.16221)
(1951.3 -18.3402 -1.49089)
(1955.93 -13.3838 2.09818)
(1942.55 -12.8909 -5.48119)
(1944.53 -8.26802 -0.132448)
(1938.44 0.422386 2.66747)
(1933.32 1.74108 16.6268)
(1926.1 -1.90999 25.8989)
(1881.16 -12.6468 32.6422)
(1949.21 13.9812 -2.78367)
(1951.78 23.8412 -1.18963)
(1942.5 22.3699 -9.54773)
(1937.56 14.8112 -3.50309)
(1932.4 6.33715 8.24689)
(1942.06 4.74132 -2.85401)
(1949.67 6.13351 -8.20345)
(1919.42 -3.86657 -11.3313)
(1903.54 -2.30346 14.613)
(1853.32 -4.13885 31.0542)
(1929.34 -2.20385 -4.00887)
(1910.88 3.656 -6.26817)
(1917.08 12.4703 -7.8279)
(1927.18 21.4788 6.54989)
(1919.45 16.1746 12.0952)
(1914.88 23.4737 16.1178)
(1910.52 25.5233 10.4158)
(1889.6 22.3553 -1.22594)
(1869.95 26.2823 1.90211)
(1853.62 16.6769 3.0926)
(1937.91 4.39848 5.8803)
(1942.24 11.838 15.9225)
(1943.88 6.76339 16.6115)
(1943.14 0.310141 16.9596)
(1934.52 -5.75794 23.1828)
(1942.36 -7.13508 11.1161)
(1929.92 -8.35965 13.8557)
(1939.32 -3.28115 -2.23554)
(1909.82 9.37964 0.777946)
(1841.39 20.9496 1.61466)
(1923.03 0.25861 14.4453)
(1928.78 -6.41407 6.50365)
(1941.22 -12.5908 9.63741)
(1949.83 -10.1164 20.2652)
(1957.26 -5.67572 13.5642)
(1956.44 -3.42631 -3.58157)
(1931.6 0.282328 -29.2768)
(1910.49 -10.4402 -26.5491)
(1901.27 -9.1488 -20.9663)
(1844.04 -27.476 -7.13273)
(1950.89 9.948 -10.0232)
(1948.36 15.3557 -3.00082)
(1941.65 5.83905 0.261883)
(1932.82 5.54803 -12.6202)
(1935.03 13.1142 -16.8424)
(1926.73 8.27125 -4.86489)
(1928.22 3.02388 0.144436)
(1934.59 1.04835 14.3904)
(1913.71 -0.0472851 18.9061)
(1896.99 -4.32275 16.8404)
(1946.3 1.30223 3.93505)
(1938.88 -4.31015 0.92925)
(1938.15 -14.5611 6.40401)
(1938.74 -15.6291 3.23971)
(1935.94 -18.5158 2.45937)
(1943.51 -14.7301 -1.61055)
(1946.02 -10.4843 -5.10562)
(1956.06 -8.81449 -7.12569)
(1931.84 -17.6693 0.528628)
(1876.82 -23.6057 10.4866)
(1946.12 -8.8563 -1.25113)
(1949.02 -0.385391 0.733597)
(1946.41 5.92508 -5.10291)
(1947.04 15.0467 -6.62942)
(1944.88 -0.12824 -14.6409)
(1939.32 -8.19977 -12.64)
(1946.91 -15.5025 -19.8977)
(1945.92 -7.60376 -12.168)
(1930.59 -5.85519 5.42328)
(1860.42 -6.05781 26.5932)
(1946.4 11.3229 4.696)
(1952.22 -2.02071 1.31841)
(1950.45 5.73967 1.76141)
(1944.19 1.76149 7.22912)
(1948.7 1.43001 16.8124)
(1965.61 -3.37742 20.0701)
(1964.43 -5.16485 23.1077)
(1938.74 -10.1776 17.9579)
(1950.36 -7.97063 15.3511)
(1874.24 -3.61951 27.5744)
(1932.61 -0.377074 -17.5456)
(1931.59 -5.47067 -14.185)
(1940.63 -26.7177 -7.20031)
(1946.05 -29.6725 2.38751)
(1945.55 -18.8053 -17.6457)
(1937.56 -17.126 -11.0135)
(1931.16 -17.3531 -9.64482)
(1909.61 -31.1385 4.62176)
(1885.48 -25.8126 19.4456)
(1858.78 -4.12762 18.3548)
(1926.53 -32.4114 14.8405)
(1931.5 -18.409 18.5832)
(1925.74 -19.8824 6.29687)
(1915.04 -14.9626 4.78905)
(1906.87 -8.31223 12.2398)
(1918.22 -2.23529 4.20475)
(1922.04 9.85944 2.86276)
(1916.17 2.12618 3.8632)
(1883.62 -2.21371 -2.3572)
(1833.71 6.12363 9.28143)
(1921.63 -8.64265 6.65395)
(1921.7 -17.9782 14.6814)
(1926.61 -15.7015 4.54283)
(1935.62 -13.9801 13.3218)
(1946.55 -12.9 9.15848)
(1939.65 -8.25528 3.64956)
(1937.72 -5.63431 1.11796)
(1938.78 -5.53853 -2.0331)
(1901.8 0.921746 -3.07673)
(1904.6 3.39853 4.0595)
(1935.81 -18.1892 16.9103)
(1930 -22.3902 23.5539)
(1939.85 -11.4983 21.8631)
(1944.76 0.456876 15.4053)
(1942.85 0.175644 9.03852)
(1937.11 3.97123 -0.706085)
(1937.27 -1.3744 -12.6826)
(1936.24 10.8508 -3.50082)
(1923.34 4.30625 6.83558)
(1890.43 -12.0022 19.442)
(1915.6 -8.75461 -10.3546)
(1919.34 -21.4505 -2.39748)
(1921.48 -17.8171 -6.96513)
(1924.37 -11.746 -1.95185)
(1924.4 -4.15697 -2.85821)
(1933.97 -0.532304 -0.0617471)
(1916.06 1.78734 10.8714)
(1922.41 -9.31319 9.9086)
(1889.76 10.189 11.063)
(1838.94 21.6289 21.73)
(1929.64 6.90194 7.37481)
(1919.44 20.8347 2.142)
(1911.24 15.8176 10.3921)
(1903.75 4.51031 7.83743)
(1915.1 -0.26464 3.70049)
(1915.96 -5.50027 -4.43488)
(1917.57 -2.40797 -2.28452)
(1904.71 3.69268 14.38)
(1904.48 19.3968 2.6387)
(1853.38 5.96748 6.05894)
(1945.05 4.84799 10.3942)
(1940.18 -1.18165 5.40509)
(1939.98 -1.44325 2.51447)
(1942.43 -2.07187 7.41064)
(1935.62 9.97329 12.514)
(1912.92 14.9428 23.9491)
(1897.15 22.1962 15.2452)
(1882.32 25.9627 14.5861)
(1884.61 35.2193 4.51115)
(1861.58 30.4015 3.62705)
(1943.31 10.4613 -5.5916)
(1949.25 4.35099 -2.67881)
(1943.4 -12.2284 -5.28233)
(1947.78 -10.1354 -14.0555)
(1952.06 -15.4355 -14.6783)
(1954.36 -8.23581 -12.5496)
(1948.09 -4.73366 -7.34246)
(1936.77 9.56854 4.08038)
(1889.42 21.5159 12.3612)
(1822.62 34.3872 22.8901)
(1930.72 2.77515 0.730631)
(1933.75 -4.97843 5.35162)
(1943.19 2.12751 6.10382)
(1952.19 -7.16841 5.57287)
(1954.57 -19.3191 11.5141)
(1951.34 -22.7796 16.6227)
(1947.52 -9.02094 20.8239)
(1925.47 -3.37767 12.9496)
(1897.72 0.589048 20.473)
(1879.53 0.955462 25.5593)
(1931.93 -18.7276 6.19462)
(1936.88 -11.7358 0.989687)
(1941.06 -23.2844 0.791255)
(1933.25 -15.5018 0.96134)
(1927.28 -9.83829 -2.87085)
(1923.6 -2.35912 -3.25252)
(1905.62 -3.12144 -12.8105)
(1863.16 5.36399 -0.737733)
(1872.54 -3.80699 -8.06519)
(1854.05 -0.548624 7.99062)
(1949.1 20.7541 -30.1945)
(1937.74 8.05791 -25.4076)
(1939.2 4.06018 -20.9328)
(1946.15 -13.6722 -14.3144)
(1949.42 -17.3053 -5.24481)
(1951.04 -18.9622 -13.685)
(1951.63 -13.2825 -7.78714)
(1926.82 -5.66068 0.918012)
(1944.77 -5.35103 -12.0582)
(1890.77 1.689 5.90995)
(1924.79 -9.08547 7.77234)
(1921.5 5.62966 -10.7368)
(1917.61 2.96425 -6.74102)
(1927.48 10.2084 -11.8012)
(1937.19 9.70496 -0.916226)
(1938.29 13.793 -11.9712)
(1948.42 30.1058 -13.2058)
(1959.2 9.23095 -0.754102)
(1909.31 -13.0299 19.1584)
(1837.9 17.8398 34.4918)
(1937.76 3.4527 2.68538)
(1945.45 0.513542 4.53173)
(1957.52 14.1408 1.39106)
(1941.56 9.57886 -9.10162)
(1943.18 3.0654 -8.56133)
(1948.2 -4.12754 0.801171)
(1933.56 -11.9032 -3.42006)
(1935.24 -7.39964 -3.68519)
(1921.9 11.0637 -0.955858)
(1868 9.19498 22.0894)
(1933.65 -4.42229 -18.4778)
(1929.96 0.0507701 -6.43948)
(1932.42 -1.4277 -0.737911)
(1939.59 -5.02365 -15.728)
(1933.27 -3.38886 -15.3616)
(1926.67 0.391112 -5.63886)
(1935.88 5.64874 -2.77798)
(1926.89 -0.657689 1.38033)
(1876.29 -9.75752 -0.938282)
(1829.76 -12.5634 19.6955)
(1917.58 -5.41146 -3.35172)
(1905.53 -17.1968 -14.7815)
(1920.74 -26.7329 -9.4991)
(1921.61 -29.1039 8.28999)
(1917.88 -25.413 17.8745)
(1927.46 -27.2645 22.2613)
(1935.05 -26.1496 26.0285)
(1931.59 -11.5474 16.3473)
(1925.84 -8.36566 -0.126298)
(1882.06 2.30236 13.002)
(1925.35 12.6589 -1.78715)
(1928.41 14.8366 -15.2997)
(1922.31 13.1634 -17.3141)
(1938.29 4.82161 -25.1721)
(1945.47 -13.4961 -10.6414)
(1952.95 -13.1386 -0.793451)
(1952.75 -15.4808 -4.64004)
(1939.83 -7.59161 -5.42266)
(1925.86 -6.5949 2.26823)
(1865.15 1.20449 11.5051)
(1957.68 -9.02417 1.39032)
(1969.42 -3.33545 11.8537)
(1957.08 -0.162704 8.97734)
(1956.06 -4.59936 3.8432)
(1951.65 -8.61877 -4.95353)
(1945.66 -7.2132 -5.59527)
(1937.44 -14.0005 3.16881)
(1931.76 -17.9777 4.14517)
(1924.17 -2.67235 -4.74732)
(1927.77 5.08225 -1.40445)
(1935.5 10.6968 -18.1313)
(1942.31 9.92059 -9.04654)
(1949 9.03473 2.70418)
(1951.52 5.46409 12.5158)
(1956.17 -5.16359 14.7793)
(1954.34 -7.40096 15.1881)
(1955.06 -7.40058 19.8483)
(1955.62 -6.16795 15.2159)
(1930.85 2.39601 15.8345)
(1889.09 8.65998 15.5336)
(1941.73 12.8332 9.28433)
(1930.52 8.87656 7.27257)
(1936.14 -6.68809 12.6055)
(1942.58 -17.7942 12.6245)
(1943.71 -3.03986 10.5676)
(1949.29 14.4899 2.38444)
(1952.65 22.0893 -1.30325)
(1943.93 19.8741 -0.995701)
(1915.62 6.66999 -3.5664)
(1873.61 -9.04379 13.1537)
(1932.85 -2.0223 -2.45798)
(1938.79 5.77873 13.1595)
(1942.18 5.94144 11.9905)
(1934.87 16.4449 6.89671)
(1931.81 5.11806 -4.15119)
(1933.32 -13.4429 -17.9224)
(1919.66 -28.4675 -10.2594)
(1923.64 -13.5584 5.05394)
(1908.74 7.4737 10.0744)
(1879.21 13.6091 22.537)
(1929.67 -2.96765 -3.00067)
(1928.31 0.803026 5.68269)
(1927.78 -7.43737 3.21899)
(1937.82 -15.1151 -0.330218)
(1923.28 -16.8294 4.19289)
(1923.79 -6.16274 10.2984)
(1925.77 -7.57481 8.43808)
(1914.67 -10.4678 18.2592)
(1906.28 -0.739064 21.0366)
(1870.44 8.49415 28.524)
(1949.13 0.92889 -0.776868)
(1944.5 7.54745 4.35115)
(1945.99 15.7062 13.0363)
(1934.33 8.41851 21.3779)
(1933.01 -0.186361 13.0082)
(1925.04 -5.31797 0.214686)
(1919.83 2.73112 -11.5996)
(1902.3 -1.25815 -16.3327)
(1871.16 -10.6393 -14.4195)
(1740.46 10.2804 -26.4656)
(1929.29 13.9742 -23.5265)
(1939.47 9.4948 -12.3002)
(1952.35 -0.512673 5.39907)
(1954.16 5.29353 0.072822)
(1939.66 -2.64475 -3.21503)
(1934.3 4.65159 9.74386)
(1935.77 12.0791 22.0633)
(1910.12 4.21228 13.2982)
(1855.79 -10.5941 17.4854)
(1786.7 -1.82155 33.596)
(1928.19 9.96723 -20.8996)
(1930.18 -0.405721 -16.3771)
(1923.01 -1.75223 -6.30157)
(1920.9 -3.62426 7.45048)
(1914.21 -0.724433 17.9227)
(1910.24 -3.36084 18.8036)
(1931.61 -4.84894 16.6054)
(1924.57 -0.968767 10.8865)
(1912.86 0.848228 10.1417)
(1865.4 1.71713 15.6038)
(1923.38 16.2241 6.0038)
(1928.68 20.5106 5.50423)
(1926.86 22.5352 -0.119897)
(1928.72 21.6964 -10.4047)
(1917.62 15.1185 3.66588)
(1919.36 15.6037 -2.61729)
(1926.11 19.2287 -16.3373)
(1926.64 7.85236 -15.1473)
(1913.53 -1.52532 6.147)
(1859.99 5.72117 -0.942179)
(1933.98 -0.817765 11.0904)
(1932.47 6.69478 9.70408)
(1922.67 5.96797 8.21082)
(1932.97 5.1292 1.82738)
(1946.42 1.24572 0.466143)
(1941.91 4.63571 -0.00577865)
(1934.63 4.34253 -6.48895)
(1928.25 15.5624 8.72301)
(1906.53 5.29236 11.9987)
(1884.9 15.6175 6.48219)
(1947.13 -11.8767 -9.87944)
(1961.37 -6.45816 -6.77736)
(1965.93 -14.2982 0.387409)
(1958.45 -18.532 -10.6223)
(1951.67 -11.7521 5.14665)
(1949.97 -2.54036 11.4039)
(1925.09 12.0103 15.1116)
(1928.2 31.0868 11.5944)
(1941.63 29.3587 11.9619)
(1922.52 2.44316 18.8855)
(1932 -4.0919 -5.02341)
(1925.56 -8.64393 1.60184)
(1925.73 -7.96793 6.17488)
(1927.91 -8.3847 12.818)
(1928.5 -15.9629 16.6966)
(1943.42 -15.2808 13.0327)
(1941.26 -11.1084 19.9928)
(1923.15 1.22016 26.5985)
(1919.51 3.43573 26.5103)
(1894.04 13.9144 30.627)
(1936.23 -11.1554 -9.94274)
(1939.4 -13.4306 -6.05454)
(1933.05 -7.45066 -14.6406)
(1931.58 -4.70615 -12.133)
(1924.41 5.23332 -2.19163)
(1919.69 3.75397 -6.54861)
(1914.04 2.45619 2.41128)
(1901.27 -9.77599 12.2926)
(1877.03 -15.0906 2.6395)
(1862.91 7.23782 -7.98511)
(1942.91 15.4136 12.0676)
(1947.71 10.3974 18.4351)
(1944.95 -4.3583 9.62086)
(1954.42 3.9188 7.30709)
(1953.78 9.90816 2.55967)
(1939.31 0.0494379 -2.01668)
(1926.73 15.7259 -4.80677)
(1939.37 9.50318 -13.6452)
(1905.38 2.37015 6.90896)
(1927.41 0.124083 19.4584)
(1940.65 -4.2475 7.90313)
(1938.77 4.55832 12.9362)
(1928.9 14.5072 13.3088)
(1928.43 -1.03843 13.051)
(1946.36 -5.58097 6.88597)
(1947.05 0.548981 5.27571)
(1938.87 -13.5306 -0.624136)
(1929.37 -12.273 16.949)
(1923.64 -10.135 15.3731)
(1914.54 -1.66683 20.2271)
(1935.05 3.44827 -13.1514)
(1938.62 10.843 -1.14524)
(1949.11 2.55366 11.9455)
(1959.55 1.69178 -8.7886)
(1943.64 -17.6745 -9.18185)
(1927.27 -17.216 -10.6019)
(1925.31 -15.7831 -2.22918)
(1937.8 -2.3942 -10.1726)
(1948.04 2.7232 -22.241)
(1927.04 18.7409 -20.9041)
(1934.66 7.34023 1.61111)
(1928.8 2.12777 -1.47079)
(1923.34 8.2834 5.8795)
(1923.56 -2.5519 5.07951)
(1937.52 -7.77571 -0.922094)
(1958.33 -9.70215 -15.8365)
(1929.09 -11.0251 -22.4933)
(1907.45 -4.53309 -15.7107)
(1908.24 6.45629 0.0432028)
(1921.14 -7.12373 23.5792)
(1925.4 -9.12122 -5.26231)
(1928.93 1.37842 -10.4219)
(1932.02 10.5614 -6.79248)
(1928.21 22.5701 -5.62309)
(1931.08 20.567 0.847001)
(1944.07 29.1252 10.1386)
(1947.17 12.4155 4.42346)
(1942.83 -0.417341 0.182292)
(1925.21 0.282829 -7.30525)
(1900.27 16.4196 0.936077)
(1954.2 8.65035 5.96553)
(1954.38 2.11938 11.3368)
(1960.49 -0.583229 10.7467)
(1956.74 -6.8609 4.54417)
(1963.88 -1.48153 7.28259)
(1952.54 -8.62051 9.79994)
(1932.93 -5.66793 -1.18298)
(1934.94 10.1443 5.49966)
(1908.1 -3.21824 9.21683)
(1887.01 -14.5249 18.8201)
(1939.53 -1.63763 -3.67628)
(1941.76 7.06239 3.83703)
(1941.6 -4.12308 -4.24072)
(1936.01 -7.74705 -21.0045)
(1928.52 -14.9599 -18.8153)
(1936.56 -13.7295 -20.0049)
(1938.38 -20.6426 -5.69991)
(1935.91 -9.33368 -4.72272)
(1934.92 -6.44687 4.82186)
(1914.02 11.8123 14.9023)
(1917.8 6.63561 14.7057)
(1929.68 -11.8625 -0.566921)
(1933.01 -8.5041 0.905394)
(1917 -6.43938 2.37401)
(1924.17 -9.46156 11.3418)
(1923.41 4.75809 13.6056)
(1912.08 0.31893 22.7721)
(1906.59 0.991502 23.6174)
(1895.71 -0.666945 20.9269)
(1880.19 20.7029 27.6424)
(1934.87 -17.5842 -9.13783)
(1915.56 -14.2234 5.2644)
(1922.04 -18.386 12.752)
(1919.73 -9.48067 6.47371)
(1928.87 -5.70714 0.361997)
(1929.42 -12.3362 1.26834)
(1940.63 -16.1272 0.310922)
(1937.87 -9.6858 -5.25604)
(1913.95 -9.10654 0.216418)
(1881.29 -21.8422 22.4084)
(1933.76 3.8764 -8.42655)
(1932.81 2.51872 -7.44565)
(1927.53 -2.43187 4.69197)
(1930.9 -6.58591 8.60954)
(1934.54 -14.1467 23.0015)
(1941.5 -9.26209 15.7155)
(1926.15 -15.1049 6.49366)
(1918.58 -8.48426 17.5857)
(1922.17 3.8396 9.87079)
(1932.31 13.422 7.57364)
(1918.17 3.13156 -0.611285)
(1919.06 -1.06374 3.24375)
(1914.27 2.99693 7.65581)
(1911.01 -2.62395 11.6943)
(1910.78 2.2676 10.1409)
(1920.32 -2.91858 16.0409)
(1911.89 -4.96248 17.9474)
(1905.52 -3.87139 8.6328)
(1896.15 -12.7671 12.8585)
(1904.82 -4.28153 5.01772)
(1931.59 -13.4839 5.9403)
(1925.2 1.36737 0.0601589)
(1928.07 0.347165 4.24394)
(1933.88 2.66419 1.95429)
(1941.72 6.80807 16.1177)
(1930.08 13.5546 24.4866)
(1932.82 7.02704 4.15537)
(1912.69 16.2372 5.49127)
(1879.42 10.6765 4.25747)
(1885.57 -0.73921 14.2797)
(1928.53 -6.69767 13.2748)
(1930.26 -16.1888 23.744)
(1926.03 -15.4348 16.2014)
(1942.33 -8.95726 19.0553)
(1950.71 -6.59055 8.06581)
(1942.57 -6.01596 11.9428)
(1929.29 -1.53096 23.9291)
(1936.59 2.93668 21.8136)
(1910.54 -1.79212 32.3563)
(1864.29 -0.274542 15.7478)
(1951.12 -15.5424 -17.2952)
(1947.83 -2.19566 -2.08065)
(1957.51 -0.132168 10.9823)
(1955.99 9.64221 9.05344)
(1955.85 27.332 8.99764)
(1954.77 18.6156 5.26628)
(1950.2 13.688 -20.1241)
(1951.03 -1.61437 -17.7019)
(1946.68 -15.3522 -11.0051)
(1903.48 -3.25169 6.12322)
(1962.64 7.83573 -18.5474)
(1963.09 3.73577 -19.2774)
(1959.89 1.04572 -14.8426)
(1952.25 5.84279 -8.15955)
(1958.4 1.60442 -15.3368)
(1971.14 0.908713 -17.6782)
(1957.83 -0.180777 -8.55352)
(1943.29 3.6137 -8.70758)
(1909.97 5.96989 4.11379)
(1876.35 1.88381 30.4094)
(1946.24 -9.61603 3.84502)
(1937.55 -15.5264 5.47623)
(1949.51 -11.0253 5.95015)
(1959.96 10.1713 9.80063)
(1963.3 15.8924 16.3101)
(1950.41 15.6743 1.80398)
(1931.47 5.8008 -7.12114)
(1933.51 -13.6214 -13.5762)
(1923.68 -8.7656 5.30879)
(1908.42 1.51463 11.5509)
(1923.62 -5.41483 26.3948)
(1932.79 -3.9127 34.5589)
(1923.08 -0.0797908 40.0042)
(1935.64 -7.07533 35.1987)
(1944.29 -5.52152 13.8972)
(1938.72 -14.2848 6.955)
(1925 -8.24913 17.9202)
(1927.19 3.57627 11.3345)
(1917.46 5.82987 13.5708)
(1893.27 22.875 10.4976)
(1939.22 -11.7483 -17.9509)
(1944.41 -17.0425 -5.17128)
(1940.62 -9.19168 -4.9391)
(1933.56 -7.39343 3.5898)
(1934.22 -10.3746 3.55473)
(1941.07 6.96539 -0.694705)
(1941.43 7.5035 -8.42337)
(1934.79 -1.11345 -10.8438)
(1916.78 -0.524534 2.82211)
(1870.61 -9.46664 6.62506)
(1938.35 -4.9126 -32.4456)
(1938.58 -18.8284 -17.1717)
(1941.05 -16.9289 -13.9535)
(1934.65 -17.9857 -5.45082)
(1928.09 -15.4955 -7.69684)
(1923.52 -5.51903 1.25929)
(1944.51 -11.0849 0.685694)
(1941.47 1.07872 -5.61012)
(1905.32 -5.09408 13.7109)
(1922.48 -3.06894 14.5701)
(1943.71 0.269935 -1.21069)
(1957.1 12.4235 10.9979)
(1961.64 11.5306 15.9306)
(1951.73 4.63284 14.4374)
(1943.85 -7.8041 4.8608)
(1939.81 -7.98235 -6.7299)
(1932.01 -10.3626 -1.89927)
(1935.35 6.9623 -3.21964)
(1893.16 0.125306 5.93482)
(1886.7 -18.7916 25.8473)
(1934.9 -3.57776 8.35808)
(1939.64 -5.23269 -0.155523)
(1943.67 -6.32779 4.16724)
(1933.07 -25.921 7.03682)
(1935.83 -20.812 2.3994)
(1939.35 -7.23785 0.179999)
(1933.88 -5.16462 -1.39383)
(1922.45 -6.47893 -2.86538)
(1896.52 11.5156 6.57193)
(1878.51 -10.3 15.3839)
(1927.8 -12.87 -3.31454)
(1927.82 -24.1192 8.08489)
(1930.25 -14.949 10.3518)
(1936.58 -7.41143 15.6779)
(1938.24 3.79236 2.70311)
(1937.68 12.6013 -8.80975)
(1947.33 12.6647 -13.3948)
(1938.49 2.99043 -13.4279)
(1945.25 2.45508 6.56544)
(1919.7 2.3312 15.7053)
(1928.96 -15.4366 -6.30353)
(1936.05 -4.98401 -13.3078)
(1936.48 -9.06817 -8.92567)
(1942.52 -6.40535 -8.97108)
(1947.71 -9.75434 -1.29911)
(1942.91 -14.0243 3.37351)
(1942.19 -13.7817 3.95308)
(1941.29 -17.8605 23.4234)
(1919.82 -17.1484 11.6866)
(1901.74 6.33702 9.74512)
(1956.4 -2.929 -6.68276)
(1944.07 -16.2006 -14.4595)
(1951.15 -23.6057 -5.19377)
(1956.6 -12.3635 -9.55674)
(1965.87 0.3239 -1.31935)
(1963.2 -2.31124 -10.0937)
(1958.86 -1.81937 -21.5036)
(1933.45 15.3987 -16.7492)
(1924.91 13.9077 1.46572)
(1908.75 12.935 9.06945)
(1917.81 17.4437 0.0754605)
(1911.46 19.5726 -12.8144)
(1930.81 25.5477 -11.7428)
(1933.24 19.311 -3.44418)
(1940.09 16.1903 -11.5926)
(1944.38 7.70417 -8.59986)
(1948.54 6.29953 4.53753)
(1928.94 -8.55774 6.8089)
(1913.53 -9.83884 21.4041)
(1907.1 -2.74185 27.9098)
(1917.93 -16.3676 11.4253)
(1929.95 -8.82648 4.39994)
(1928.06 7.19413 12.2636)
(1920.8 16.5946 17.1364)
(1917.27 12.9572 10.0275)
(1908.69 12.0552 14.9517)
(1925.03 8.02978 18.3362)
(1933.87 1.90337 32.6225)
(1936.21 2.70249 19.6581)
(1923.85 9.94897 14.9573)
(1939.92 11.3839 3.898)
(1930.83 8.59682 -0.222787)
(1926.73 7.86986 -1.52607)
(1921.85 11.5345 2.2566)
(1927.19 20.8119 12.3077)
(1927.48 15.6104 19.3703)
(1931.54 10.9024 10.2653)
(1916.56 13.9437 8.57179)
(1927.57 -0.131852 15.5261)
(1930.65 -9.08484 9.39633)
(1936.28 13.3431 -16.5745)
(1939.99 9.6913 -27.7964)
(1937.26 11.6887 -17.3719)
(1938.28 5.8872 -7.37832)
(1930.01 -2.71474 0.881229)
(1925.09 -10.0336 10.1091)
(1910.84 2.33241 -0.227302)
(1934.17 6.58698 -10.0213)
(1932.23 -4.91088 -8.01769)
(1923.88 -4.98991 -3.589)
(1935.81 8.76604 12.9928)
(1920.76 17.2494 7.28292)
(1925.02 1.18039 -9.17798)
(1937.86 -10.0828 -14.7064)
(1937.55 -16.1124 -20.9862)
(1944.63 -15.7962 -21.3368)
(1930.82 0.269469 -5.54852)
(1903.02 2.79138 14.3469)
(1918.71 -12.3474 21.2137)
(1848.15 4.23364 14.8742)