/*--------------------------------*- C++ -*----------------------------------*\
| =========                 |                                                 |
| \\      /  F ield         | OpenFOAM: The Open Source CFD Toolbox           |
|  \\    /   O peration     | Version:  2.4.0-MNF                             |
|   \\  /    A nd           | Web:      www.OpenFOAM.org                      |
|    \\/     M anipulation  |                                                 |
\*---------------------------------------------------------------------------*/
FoamFile
{
    version     2.0;
    format      ascii;
    class       volScalarField;
    location    "5e-05";
    object      variableHardSphereMeanFreePath_Ar;
}
// * * * * * * * * * * * * * * * * * * * * * * * * * * * * * * * * * * * * * //

dimensions      [0 1 0 0 0 0 0];

internalField   nonuniform List<scalar> 
77760
(
0.0132792
0.0130063
0.0133512
0.0132645
0.013353
0.0127244
0.013078
0.0131469
0.0150812
0.018173
0.0143013
0.0148331
0.0134408
0.0140946
0.0141361
0.0135037
0.0132336
0.0138124
0.0154146
0.0174292
0.013039
0.0126464
0.0127443
0.0125603
0.0123744
0.0124775
0.0122256
0.0135958
0.0164923
0.0168973
0.013193
0.0136366
0.013646
0.0138808
0.0141935
0.013738
0.0135926
0.0138809
0.014282
0.0158081
0.0133345
0.0134756
0.0138745
0.0132215
0.0131354
0.0134702
0.0133566
0.0143349
0.0138756
0.0153844
0.0130516
0.0131896
0.0132016
0.0136706
0.0134548
0.0131215
0.0143252
0.0151126
0.0152046
0.0153168
0.0130248
0.0127586
0.0128712
0.0130254
0.0126721
0.0132153
0.0126251
0.0133552
0.0137162
0.0149042
0.0135506
0.0137143
0.0136441
0.0135076
0.0138418
0.0138473
0.0136297
0.0139552
0.0141977
0.0168894
0.0133035
0.0131148
0.0128168
0.0130602
0.0133006
0.0137458
0.0138074
0.0143895
0.0134997
0.0175346
0.0132877
0.0131867
0.0134661
0.0133986
0.0135115
0.0133263
0.0137748
0.0137989
0.0150169
0.0170519
0.0129148
0.013307
0.0134096
0.0137792
0.0139853
0.0137663
0.0131701
0.012458
0.0127206
0.0139686
0.0136535
0.0136044
0.013546
0.0134084
0.0127598
0.0131144
0.0132075
0.0130933
0.0135181
0.0153605
0.013078
0.0133389
0.0138546
0.0135267
0.0137058
0.0137295
0.0145399
0.0138285
0.0150634
0.0171519
0.0132463
0.013007
0.0126765
0.0127372
0.0127748
0.0131908
0.0134276
0.0141789
0.0144809
0.0164689
0.0133598
0.0132368
0.0135597
0.0143938
0.0145933
0.0150416
0.0145827
0.0138345
0.0147888
0.0175852
0.0135832
0.0137491
0.0135731
0.0131983
0.0133444
0.0129075
0.0134949
0.0141875
0.016426
0.0182307
0.0134785
0.0136637
0.0134394
0.0138499
0.0135801
0.0140256
0.0137054
0.0135484
0.0142147
0.0175976
0.0136168
0.0138969
0.0141682
0.0138927
0.0142694
0.0140694
0.0142725
0.0147816
0.0159336
0.0167463
0.0132618
0.0127394
0.0121789
0.0121377
0.0122412
0.0128257
0.0127183
0.0142632
0.0132259
0.0169486
0.0133732
0.0137826
0.0135153
0.0131359
0.0127859
0.0126561
0.0128222
0.0128563
0.0143432
0.0157497
0.0134518
0.0140549
0.0144202
0.0149079
0.0150483
0.0149827
0.0147073
0.0144782
0.0153939
0.0169257
0.0130894
0.0133554
0.0130812
0.0131106
0.013022
0.0131358
0.0135062
0.0142815
0.0144518
0.0169344
0.0137729
0.0144067
0.0140072
0.0139317
0.0139839
0.0135642
0.014382
0.0130835
0.0140252
0.0151778
0.0131405
0.0124815
0.0129013
0.0132477
0.0132033
0.0128545
0.013566
0.0141738
0.0148516
0.0167965
0.0128699
0.0130263
0.0130765
0.0128029
0.012793
0.0132927
0.0129722
0.0137566
0.0147276
0.0172702
0.0133143
0.0132575
0.0129984
0.013144
0.0134855
0.0134978
0.0134131
0.0134095
0.0132563
0.0158796
0.0128631
0.0128236
0.0131032
0.0127546
0.0129829
0.0125645
0.0133511
0.0124141
0.0129638
0.0148096
0.0134185
0.014091
0.0136895
0.0136579
0.0133944
0.0134094
0.0134988
0.0142647
0.0134686
0.0145676
0.0132228
0.0129607
0.0130671
0.0132053
0.0135716
0.0130468
0.0131361
0.0136137
0.0149596
0.0176919
0.013092
0.0130672
0.0129611
0.0129859
0.0131883
0.0135397
0.0137678
0.013083
0.0131259
0.0162439
0.0131466
0.013252
0.0130294
0.0130147
0.0132519
0.0131167
0.0130171
0.0133743
0.0150383
0.0166525
0.0139841
0.0140312
0.014583
0.0142142
0.0144137
0.0146636
0.0142976
0.0153175
0.0155992
0.0171383
0.0134343
0.0134019
0.0132511
0.0133191
0.01321
0.0135225
0.0133658
0.013584
0.0142477
0.0161193
0.0134385
0.0132708
0.0134919
0.0138639
0.0137318
0.0137745
0.0139486
0.0139342
0.0149806
0.0166502
0.0130181
0.0126942
0.0125722
0.0125593
0.0123167
0.0122907
0.0126082
0.012861
0.0129048
0.0145889
0.0132445
0.0132353
0.0132839
0.013425
0.0137092
0.0137954
0.0135745
0.0129877
0.0125422
0.0132551
0.0132949
0.0133213
0.0132285
0.0132853
0.0134579
0.0141038
0.0142419
0.0140562
0.016087
0.0176772
0.0135151
0.0135961
0.0136667
0.0133439
0.0132019
0.0141517
0.0147494
0.0162677
0.0151381
0.0181692
0.0128448
0.0130372
0.0131525
0.0132995
0.0141976
0.0144763
0.0148233
0.0149313
0.0170292
0.0188651
0.0135577
0.0135848
0.0133347
0.0135239
0.0136311
0.0131587
0.0135948
0.014204
0.0158269
0.0156653
0.0125504
0.0128797
0.0132765
0.0135831
0.013116
0.0128938
0.0126503
0.0133141
0.0132655
0.0141239
0.0128943
0.0131429
0.0131595
0.0131579
0.0139014
0.0142367
0.0140507
0.0143047
0.0146902
0.0155847
0.0134669
0.0135252
0.0126416
0.0127565
0.0123307
0.0122099
0.012808
0.0128426
0.0137122
0.0150975
0.01349
0.0134138
0.0132916
0.012343
0.0126318
0.0126755
0.0132713
0.0147111
0.0154622
0.0180994
0.0128374
0.0123016
0.0120113
0.0127121
0.012521
0.0122937
0.0123404
0.0135062
0.0147835
0.0152222
0.0134362
0.013518
0.0138347
0.0133966
0.0126483
0.0122557
0.0136473
0.0134513
0.014341
0.0164064
0.0130117
0.0134704
0.0133125
0.0132775
0.013735
0.0138333
0.0149134
0.0148929
0.0140141
0.0154784
0.0134573
0.0133956
0.0132605
0.0136259
0.013635
0.0133066
0.0139041
0.0147736
0.0151472
0.0148707
0.0136295
0.0134091
0.0134253
0.0134546
0.0136262
0.0130549
0.0132376
0.0130243
0.0144267
0.0159515
0.01312
0.0129564
0.0123333
0.0122092
0.0123129
0.012331
0.0124424
0.0119853
0.0127613
0.0144554
0.0135401
0.0139114
0.0139819
0.013671
0.0133905
0.0127717
0.0132624
0.0143417
0.01344
0.0160152
0.012997
0.0134888
0.0135076
0.0133016
0.0133557
0.0135656
0.0136139
0.0151781
0.0161941
0.016061
0.0129069
0.0126333
0.0130059
0.0127989
0.0132125
0.0134436
0.0139751
0.0142119
0.0155966
0.0173
0.0137881
0.0135477
0.0131657
0.0138026
0.0136973
0.0141088
0.0134414
0.0132606
0.0143316
0.0138688
0.0132692
0.0139666
0.0139567
0.0138298
0.0135952
0.0135256
0.0137881
0.0141056
0.0158663
0.0163454
0.0133816
0.0132633
0.0133354
0.0135685
0.0134545
0.0140601
0.0143819
0.0138427
0.0150914
0.0159234
0.0132856
0.013339
0.0135972
0.0130578
0.0132639
0.0134601
0.013564
0.0134794
0.0133401
0.01468
0.0127781
0.0122688
0.0122541
0.0129568
0.013134
0.0141042
0.0141382
0.0146619
0.0146322
0.0161189
0.0135215
0.0129252
0.0123325
0.0124034
0.0123598
0.012448
0.0124226
0.0137205
0.0152908
0.0158014
0.0134248
0.0135865
0.0132547
0.0129771
0.0128596
0.0128104
0.0131545
0.0139248
0.0151821
0.0163871
0.0134988
0.0134134
0.0135171
0.0137216
0.0134595
0.0135325
0.0143359
0.0150603
0.0154108
0.0150858
0.0136369
0.0135434
0.0140421
0.0136415
0.0132867
0.01349
0.0139162
0.0149866
0.0142617
0.0164218
0.0134244
0.0130035
0.0125551
0.0127242
0.0132527
0.0132125
0.0136443
0.0139568
0.0160348
0.0166012
0.0134736
0.0130592
0.0135907
0.0133414
0.0131673
0.0131924
0.01363
0.0137949
0.0152589
0.0171154
0.0130996
0.0132206
0.0131757
0.0130318
0.0125701
0.0126155
0.0120638
0.0123931
0.0142242
0.0152898
0.0132853
0.0130417
0.0133939
0.0136309
0.0130947
0.0132816
0.0133798
0.0141164
0.0140182
0.0154825
0.0131426
0.0135486
0.0134906
0.0135775
0.013555
0.0130616
0.0130734
0.0129618
0.0134034
0.0153359
0.013325
0.0132649
0.0131231
0.0137979
0.0139112
0.0135367
0.0134255
0.0132363
0.0138329
0.013607
0.0132187
0.0136292
0.0136359
0.0135152
0.0134153
0.0129344
0.012838
0.0128964
0.0139807
0.0157048
0.0131388
0.0128417
0.0129552
0.0135463
0.0136673
0.0142372
0.0137658
0.0141504
0.0144861
0.015581
0.0134044
0.0134309
0.0134956
0.0132467
0.0129867
0.0131002
0.013936
0.0142945
0.0152803
0.016071
0.0132027
0.0131562
0.0128502
0.013403
0.0132539
0.0130305
0.0131087
0.013347
0.0141008
0.0153352
0.0136955
0.0134349
0.0135991
0.0135986
0.0133024
0.0127479
0.0124496
0.01445
0.0160611
0.0178823
0.0128189
0.0130745
0.0133897
0.0133409
0.0128466
0.0131165
0.0135939
0.0151744
0.016455
0.0171259
0.0133459
0.0132178
0.012981
0.0132395
0.0134664
0.0150613
0.014164
0.0135398
0.0129379
0.0149847
0.01366
0.0131212
0.0126433
0.0128284
0.0125275
0.0124964
0.0122216
0.0135712
0.0140163
0.0168464
0.013686
0.0132574
0.0136002
0.0133135
0.0129117
0.0124153
0.0124456
0.0138686
0.0156369
0.0160111
0.0130519
0.0135792
0.0136577
0.0131422
0.0129067
0.0138522
0.0145186
0.0136364
0.0126984
0.0141107
0.0131928
0.0133692
0.0133743
0.0133822
0.014192
0.0129748
0.0134669
0.0152006
0.0147634
0.0151178
0.0130064
0.0138302
0.0142098
0.0142275
0.0148421
0.0144086
0.0138704
0.0148057
0.0156296
0.0153954
0.0135951
0.0132154
0.0132129
0.013665
0.0135636
0.014889
0.0148389
0.0128958
0.0141097
0.0141083
0.0131999
0.0130432
0.0130186
0.0126969
0.0130917
0.012733
0.0123597
0.0121297
0.0118746
0.0125041
0.0132333
0.0131938
0.0133883
0.013937
0.0134123
0.0133793
0.0132337
0.0133821
0.0134162
0.0139674
0.0136137
0.0136264
0.0135721
0.0137358
0.0136462
0.0139199
0.0151469
0.0158216
0.0157859
0.0149982
0.0132195
0.0132602
0.0128667
0.012731
0.0130749
0.0132125
0.0128117
0.0129801
0.0143053
0.0148814
0.0137904
0.0141083
0.0134994
0.0135056
0.012711
0.0128461
0.0133815
0.0139063
0.0145063
0.0153698
0.0131241
0.0130455
0.0132949
0.0133366
0.01343
0.0132771
0.01402
0.0139375
0.0140119
0.0150002
0.0132785
0.0133672
0.0136752
0.0148018
0.0148898
0.015126
0.0150569
0.0149317
0.0164388
0.0167113
0.0135108
0.0133265
0.0127342
0.0128095
0.0135402
0.0137946
0.0136963
0.0141175
0.0155681
0.0161752
0.0131212
0.0132354
0.0141114
0.013867
0.0132251
0.0129274
0.0136453
0.0132949
0.0134853
0.0135445
0.0130245
0.0130572
0.0135661
0.0130147
0.0130484
0.0131343
0.0145977
0.015421
0.016033
0.0150601
0.013421
0.0130553
0.0129428
0.0134073
0.0135412
0.0133917
0.0135131
0.0144501
0.0156278
0.0160165
0.013168
0.0129193
0.0128555
0.0128596
0.0131692
0.0130557
0.0139253
0.015429
0.0159969
0.0167458
0.0133383
0.0133374
0.0131621
0.0127754
0.0126439
0.0126949
0.0127207
0.0120625
0.0124366
0.0143083
0.0135265
0.0137376
0.0140856
0.0138326
0.0133598
0.0135619
0.0130724
0.0131338
0.0140968
0.0163583
0.0130726
0.0131131
0.0135067
0.0143282
0.0141529
0.0138349
0.0139606
0.0137989
0.0141527
0.0149418
0.0129756
0.0127691
0.012908
0.0126451
0.0135732
0.0141583
0.0144164
0.0135126
0.0141944
0.0149624
0.0131513
0.0133235
0.0134997
0.0133102
0.0127492
0.0128318
0.0125935
0.0132605
0.0149181
0.0156085
0.0133509
0.0136527
0.014268
0.013981
0.0143893
0.0146002
0.0136513
0.0137398
0.0148414
0.0151853
0.0132879
0.0134463
0.0129575
0.0131534
0.013529
0.0134032
0.0136331
0.0142173
0.0160963
0.0156453
0.0132534
0.0132392
0.013543
0.0133836
0.0134195
0.0131768
0.0132078
0.0136193
0.0142696
0.0155276
0.0134191
0.0135578
0.0134816
0.0133252
0.0138175
0.0138882
0.0130437
0.0136287
0.0136984
0.0143404
0.0129344
0.0128442
0.0130235
0.0134789
0.0134459
0.0131838
0.013177
0.013984
0.0148912
0.0148897
0.0135263
0.0135002
0.0137902
0.0132619
0.0135154
0.0140115
0.0144027
0.0152882
0.0147659
0.0152244
0.0127216
0.0124275
0.0125454
0.0127056
0.0134854
0.0136496
0.014342
0.0151472
0.0165976
0.0169003
0.0141844
0.0148132
0.0144289
0.0138897
0.0137379
0.0139943
0.0133684
0.0136621
0.0138322
0.015167
0.0133244
0.0139563
0.0140985
0.0134883
0.0134072
0.013553
0.0136307
0.015254
0.015324
0.0147525
0.0132466
0.013193
0.0136759
0.0132824
0.0137249
0.0138523
0.0146537
0.0133487
0.0135468
0.0133297
0.0131515
0.0128114
0.012645
0.0129328
0.0132531
0.0136079
0.0142295
0.0144228
0.0136167
0.0153026
0.0135515
0.0141167
0.0139935
0.0138879
0.0140207
0.0137442
0.0158842
0.0156549
0.0158773
0.0158042
0.0133155
0.0136617
0.0136566
0.0133142
0.0132956
0.0132699
0.0137692
0.0157141
0.0168549
0.0169007
0.0131399
0.0127271
0.0130474
0.0126681
0.0132461
0.0131146
0.0138103
0.0141221
0.0125837
0.0149776
0.0130921
0.0132257
0.0137753
0.012987
0.0127834
0.0133388
0.013592
0.0135081
0.0131659
0.014178
0.0134255
0.0138361
0.0135447
0.0150346
0.0137873
0.0135916
0.0135299
0.0132645
0.0138814
0.0144863
0.012863
0.0126687
0.012994
0.0133402
0.0138446
0.01401
0.0138076
0.0136267
0.0144098
0.0150883
0.0133031
0.0133452
0.0134803
0.0130107
0.0129707
0.0130193
0.0139837
0.0132739
0.0138038
0.0129172
0.0132418
0.0130973
0.0131755
0.0131342
0.0128727
0.0130891
0.0135721
0.0146006
0.0141968
0.0135525
0.0136842
0.0137898
0.0132735
0.0128632
0.0121606
0.0123763
0.0123691
0.012917
0.0138113
0.0155932
0.0132623
0.0137401
0.0131915
0.0131537
0.0132797
0.0131505
0.0135957
0.0130748
0.0129196
0.0139617
0.0133531
0.0132971
0.0137685
0.0136695
0.0147271
0.0147636
0.0140372
0.0159239
0.0146668
0.0167879
0.0133049
0.0134525
0.0133487
0.0132384
0.0130384
0.013562
0.0135583
0.0137427
0.0142242
0.0141449
0.013264
0.0134166
0.0132116
0.01308
0.012691
0.0128467
0.0131733
0.0148221
0.0138893
0.0139511
0.013122
0.0129686
0.0128392
0.0135894
0.0138289
0.014131
0.0148364
0.0156829
0.0159811
0.0156896
0.0133315
0.0136577
0.0136041
0.0129452
0.0132958
0.0143013
0.0140655
0.0143068
0.0143115
0.0132379
0.01401
0.0139899
0.0137989
0.013563
0.0135971
0.0129463
0.0129711
0.0132598
0.0144777
0.0151239
0.0132418
0.0140444
0.013491
0.0134881
0.0134713
0.0130832
0.0124153
0.0122842
0.0129634
0.0134735
0.0135787
0.012955
0.0125524
0.012593
0.0125852
0.0130416
0.0142952
0.0137892
0.0133826
0.0137508
0.0133682
0.0135565
0.0137508
0.0140629
0.0137372
0.0136233
0.0132777
0.0127462
0.01415
0.0121456
0.0129154
0.0130438
0.0137878
0.0141086
0.0137429
0.0141237
0.0153509
0.0141525
0.014254
0.0151471
0.0136649
0.0134268
0.0132652
0.013422
0.013078
0.012963
0.0129882
0.0129016
0.0144122
0.0154
0.0132041
0.0132745
0.0134062
0.0136061
0.0141396
0.0136609
0.0139331
0.0131822
0.0133552
0.0151835
0.0130392
0.0138093
0.0139257
0.0133309
0.0128793
0.013457
0.0132282
0.0139007
0.0149605
0.0133592
0.0129963
0.0130251
0.0129125
0.0130942
0.0130785
0.0130239
0.0129279
0.0130371
0.01309
0.0131969
0.0136632
0.0130327
0.0128978
0.0129743
0.0130174
0.0129294
0.0127275
0.0129425
0.0127351
0.0138361
0.0133395
0.0135107
0.0136846
0.0132444
0.0125273
0.0124834
0.0129311
0.014789
0.0145453
0.0154125
0.01375
0.0137633
0.0133215
0.0131303
0.01394
0.0141916
0.0142144
0.014569
0.0137591
0.0144192
0.0131929
0.0130354
0.0128831
0.0129654
0.0127949
0.0133369
0.0139341
0.0136305
0.0143697
0.0148825
0.0135411
0.013642
0.013764
0.014002
0.0142798
0.0144428
0.0148078
0.0149029
0.0140093
0.0133408
0.0138517
0.0139326
0.013844
0.0130266
0.0131953
0.012745
0.0122726
0.0127489
0.0130498
0.0138493
0.0133546
0.0137888
0.013622
0.01346
0.0134028
0.0130093
0.0138342
0.0140839
0.0166427
0.0170873
0.0137423
0.0142228
0.0138928
0.0131587
0.0137649
0.0147835
0.0148376
0.0135306
0.0141366
0.0135491
0.0125153
0.0122279
0.0129958
0.0138
0.0140677
0.0143323
0.0144304
0.0144884
0.0143745
0.014268
0.0129452
0.0131081
0.0123981
0.0124008
0.0133202
0.0130807
0.0133574
0.0135199
0.0133437
0.0131833
0.0138169
0.0133699
0.0129725
0.0129911
0.0122389
0.012927
0.0129543
0.0125494
0.012742
0.0131385
0.0129863
0.013334
0.0131784
0.0134463
0.0130212
0.0133264
0.0134155
0.0134249
0.0139941
0.0158846
0.0135149
0.0131759
0.0129367
0.0139866
0.0144769
0.0145827
0.0151241
0.0145146
0.014372
0.0157163
0.013336
0.0139557
0.0138183
0.0132103
0.0135791
0.013576
0.0135537
0.0141273
0.0143676
0.0148467
0.0136406
0.0135734
0.013331
0.0136695
0.0140814
0.0148546
0.0140285
0.0134792
0.0149546
0.0156151
0.0136584
0.0132539
0.0137462
0.0138396
0.0138701
0.0140786
0.013173
0.0135426
0.0147783
0.0142279
0.0133424
0.0134366
0.0137468
0.0139835
0.0144059
0.015112
0.0140183
0.0156948
0.0141423
0.0135399
0.0137606
0.0137971
0.0136681
0.0136927
0.0136217
0.0134591
0.0140559
0.0152409
0.0149203
0.0145094
0.0134783
0.0136446
0.0138751
0.0138884
0.0139408
0.0141016
0.0143902
0.0145116
0.0149284
0.0142382
0.0131014
0.0128402
0.0129636
0.0127423
0.0125668
0.0130761
0.0133485
0.0131962
0.0140159
0.0156026
0.0131911
0.01291
0.0132854
0.0131855
0.0138276
0.0147343
0.0140503
0.0139288
0.0142586
0.0153503
0.0134815
0.0135359
0.0142256
0.0143673
0.0138131
0.0137434
0.0142544
0.0141131
0.0140156
0.0149936
0.0133519
0.0127215
0.0123669
0.0135949
0.0132771
0.0133107
0.0133565
0.0139585
0.0131452
0.0140217
0.0131609
0.0128426
0.0135686
0.013895
0.0135057
0.0132639
0.0135264
0.0124683
0.0126998
0.0136386
0.0135491
0.0136286
0.0133796
0.0132229
0.0130817
0.0135795
0.0139334
0.0134956
0.0138385
0.0144722
0.0136562
0.0138906
0.0141163
0.0142374
0.0145264
0.0142604
0.0135857
0.0142073
0.0141163
0.0143024
0.013634
0.0138837
0.0144849
0.0148553
0.0144632
0.0140775
0.0136183
0.0130325
0.0134809
0.0137284
0.0142053
0.0141346
0.0141101
0.0138874
0.0141374
0.0141952
0.0140851
0.0158405
0.015081
0.0138796
0.013514
0.0138847
0.0137822
0.0135603
0.0135457
0.0138331
0.0138289
0.0138254
0.0139006
0.0145545
0.0133963
0.013046
0.013427
0.0132495
0.014209
0.0148264
0.0139178
0.0144465
0.0148701
0.0134445
0.0128702
0.0130361
0.0131592
0.0136778
0.0137674
0.0136577
0.0129628
0.0131546
0.0132611
0.0135338
0.0136456
0.0140421
0.0135703
0.013396
0.0144594
0.0140366
0.0128511
0.0125862
0.0126111
0.013795
0.0134954
0.0135137
0.013752
0.0138493
0.0133969
0.013571
0.0131796
0.0132657
0.0137562
0.0136914
0.0130641
0.0137536
0.0140519
0.0146262
0.0147236
0.0147276
0.0141843
0.0150001
0.0149555
0.0157497
0.0134371
0.0129156
0.0124612
0.0126084
0.0134638
0.0134821
0.0137149
0.0133929
0.012705
0.0134107
0.0136829
0.0137644
0.0138106
0.0137826
0.0137598
0.01336
0.0130789
0.0131718
0.0134535
0.0138361
0.013345
0.0138362
0.0140663
0.0135442
0.0134497
0.0136764
0.0142403
0.0152492
0.0149486
0.0151443
0.0135196
0.01362
0.0137631
0.014014
0.0143143
0.0143628
0.0145605
0.0148134
0.015077
0.0151441
0.0132369
0.0137411
0.0143576
0.014375
0.0145663
0.0140426
0.0143635
0.0154631
0.0154609
0.0155609
0.0136572
0.0135425
0.0137263
0.0137723
0.0138264
0.0141002
0.014156
0.0146305
0.0144695
0.0157431
0.0134319
0.0133472
0.0133781
0.0132933
0.0132168
0.013529
0.0141991
0.0150336
0.0143289
0.0137296
0.013666
0.013673
0.0136186
0.0135483
0.0132027
0.0131746
0.0134688
0.0132764
0.0123549
0.0142061
0.0129586
0.0130353
0.0131297
0.0137267
0.0133267
0.0137171
0.0135915
0.014018
0.0141774
0.0130797
0.0137611
0.0132046
0.0134201
0.0133537
0.0134746
0.0130511
0.0129637
0.0136978
0.0139907
0.0137491
0.0130557
0.0138657
0.0138976
0.0132574
0.0130325
0.0132992
0.0133636
0.0134013
0.0136189
0.0144819
0.0135413
0.0137507
0.0137
0.0135422
0.0130829
0.0126482
0.0121508
0.0124731
0.0137352
0.0134096
0.0128294
0.0126925
0.01294
0.013292
0.013499
0.0138022
0.0138619
0.0129733
0.012934
0.013559
0.0131302
0.013553
0.0136677
0.0131397
0.0127021
0.0123041
0.0127581
0.0129573
0.0142864
0.0164045
0.0135279
0.0138441
0.0143365
0.0139847
0.0141065
0.0155607
0.0148357
0.0146832
0.0157062
0.0167391
0.0131296
0.0129161
0.013011
0.0133947
0.0129437
0.0130847
0.0140292
0.0150528
0.0176295
0.0182999
0.0129878
0.0127705
0.013417
0.0136017
0.0138871
0.0137265
0.0134462
0.014397
0.0151871
0.0146602
0.0132937
0.0131777
0.0128303
0.0125849
0.0123795
0.0123739
0.0125
0.0131876
0.0135381
0.01374
0.0135199
0.0133708
0.0136141
0.0131003
0.0130326
0.0137461
0.0137546
0.0131963
0.0132401
0.0131898
0.0135389
0.0130908
0.0128346
0.0132237
0.0134189
0.0138918
0.013821
0.0133091
0.0137686
0.0140996
0.0133267
0.013345
0.0135953
0.0134517
0.0132908
0.0127802
0.0123172
0.012682
0.0137068
0.0129094
0.0131011
0.0134933
0.0135025
0.0134704
0.0145231
0.0136224
0.0135476
0.0133586
0.0128801
0.0128601
0.0131756
0.0131681
0.0131457
0.0131558
0.0131724
0.0132842
0.0130277
0.012655
0.0124329
0.0129605
0.0138158
0.0138732
0.0133866
0.0132359
0.0126153
0.0130866
0.0139175
0.0136478
0.0144838
0.0138988
0.0129404
0.0131078
0.0134134
0.0135228
0.0139424
0.0133817
0.0138851
0.0131419
0.0132178
0.0136954
0.014081
0.0141196
0.0137435
0.0132585
0.013479
0.0143261
0.0143326
0.0134304
0.0133744
0.0131975
0.0129982
0.0126693
0.0127279
0.0131531
0.0134517
0.0130373
0.0132988
0.0134865
0.0129444
0.0127216
0.0136668
0.013634
0.0132623
0.0131345
0.0126896
0.0125286
0.0125136
0.0119502
0.0119697
0.0123267
0.0131236
0.0126499
0.012764
0.0129525
0.0139078
0.0140806
0.0133373
0.012972
0.0124552
0.0131207
0.0130707
0.0127629
0.0130586
0.0126944
0.0129283
0.0132664
0.0142517
0.0144466
0.0143438
0.0145441
0.0132543
0.0131436
0.013418
0.0137287
0.0135932
0.0135494
0.0136886
0.0142146
0.0134362
0.014154
0.0130185
0.0132016
0.0135491
0.0144435
0.014556
0.014081
0.0135763
0.0146521
0.0141693
0.0138888
0.0132558
0.0135734
0.0138257
0.0135795
0.0134115
0.0144665
0.0139676
0.0135432
0.0129838
0.0136489
0.012995
0.0126782
0.0123791
0.0122181
0.0128614
0.0127022
0.0128125
0.0131243
0.0134478
0.0139081
0.0132715
0.0133455
0.0131741
0.0128364
0.0133305
0.0128278
0.0127622
0.0125758
0.0127637
0.0124205
0.0131227
0.013143
0.0128321
0.0130323
0.0131536
0.0134409
0.0131513
0.013357
0.0132356
0.01404
0.0126386
0.0124302
0.0120567
0.0121624
0.0115896
0.0113957
0.012165
0.0124589
0.0123521
0.013406
0.0133529
0.0131628
0.0125858
0.0127405
0.0135067
0.0138062
0.0138597
0.0143221
0.0140493
0.0146072
0.0129554
0.0129544
0.0132721
0.0131888
0.0132341
0.0127155
0.0134272
0.0133828
0.0128139
0.0133916
0.0135407
0.0136402
0.0135321
0.0132926
0.0131995
0.0133756
0.0130729
0.0144348
0.0139129
0.0142637
0.0134248
0.0131526
0.0129688
0.0134018
0.0131818
0.0127957
0.0133836
0.0123697
0.012976
0.0134381
0.0133601
0.0133045
0.0135572
0.0134765
0.013502
0.0134803
0.0136897
0.013769
0.0133877
0.013343
0.0129414
0.0130807
0.0129618
0.0126968
0.013023
0.0134153
0.0142284
0.0134624
0.0138186
0.0135799
0.0133052
0.0133001
0.0136358
0.0136392
0.0140208
0.013887
0.0142125
0.01338
0.0128549
0.013893
0.0135978
0.0133502
0.0134939
0.0132975
0.0126673
0.0127076
0.0128934
0.0134373
0.0137505
0.0135105
0.0127954
0.012578
0.0126492
0.0127655
0.0129689
0.0129553
0.0131665
0.0134614
0.0126145
0.0121526
0.0132984
0.013036
0.0129774
0.0130416
0.0135475
0.0137439
0.0143477
0.0148333
0.0140658
0.014787
0.0131863
0.0123296
0.0122058
0.0127817
0.0131789
0.0134191
0.0132957
0.0139102
0.0140839
0.0136281
0.0134502
0.0139495
0.0134586
0.0134388
0.0130347
0.0133132
0.0127402
0.0123462
0.0123618
0.0121942
0.0126958
0.0126461
0.0130259
0.0132619
0.0137712
0.0140285
0.0144285
0.0141296
0.0141857
0.015791
0.0135346
0.0133739
0.0132644
0.0139979
0.0153269
0.013985
0.0136986
0.0139668
0.0139643
0.0165931
0.0135182
0.0140046
0.0141623
0.0148742
0.0148104
0.0140165
0.0144577
0.0153061
0.0167769
0.0167672
0.0130903
0.0131863
0.0129205
0.0125783
0.0129218
0.0140979
0.013808
0.0147178
0.0153305
0.0148739
0.013345
0.013067
0.0133209
0.013751
0.0132567
0.0131065
0.0128444
0.0129312
0.0135157
0.0131457
0.0130724
0.0126648
0.0124877
0.012329
0.0126332
0.0131501
0.0131597
0.0124452
0.0129579
0.0128807
0.0132527
0.0133316
0.0136907
0.0135621
0.0142894
0.0140382
0.0148483
0.0144457
0.0137505
0.013705
0.0130843
0.0128821
0.0130788
0.0132482
0.0132192
0.0137918
0.0139574
0.0133461
0.0140656
0.0135769
0.0137138
0.0143013
0.014242
0.0139887
0.0131399
0.0130701
0.0131253
0.0133996
0.0131908
0.0142601
0.0132939
0.0129817
0.0129014
0.0130557
0.0131257
0.0132593
0.0134059
0.0137274
0.0133228
0.0138241
0.0132612
0.0129354
0.0131468
0.013105
0.0137231
0.0141046
0.014085
0.0151221
0.0152235
0.0162029
0.0131543
0.0137046
0.0135427
0.0136987
0.0134496
0.0131454
0.013377
0.013251
0.0132443
0.0137847
0.0134017
0.0134077
0.013471
0.0130984
0.0127004
0.0125652
0.0127053
0.0130659
0.0133242
0.013727
0.0131458
0.0131458
0.0139101
0.0137054
0.0137958
0.0138476
0.0134509
0.0138092
0.0142863
0.0139667
0.0135052
0.0136508
0.0133705
0.0130375
0.0130935
0.0123894
0.0125346
0.0120505
0.0124702
0.0121302
0.0130591
0.012675
0.0125042
0.0121623
0.0123612
0.0118657
0.0115445
0.0116122
0.0128019
0.0131527
0.0128419
0.0130739
0.0136512
0.013775
0.0134551
0.0133034
0.0138725
0.0134344
0.0129492
0.0129394
0.0136727
0.0135274
0.0134273
0.0131062
0.0136688
0.0136821
0.0135798
0.0131283
0.0133139
0.0132058
0.0127323
0.0127515
0.0129458
0.0133048
0.0133217
0.0133541
0.0134233
0.013856
0.0133936
0.0128362
0.0134365
0.0133187
0.0139925
0.0137787
0.0134759
0.0132653
0.0131451
0.013468
0.0135982
0.0137471
0.0134683
0.0132319
0.0129926
0.0131437
0.0135563
0.0135976
0.0129636
0.0137749
0.0134867
0.0137421
0.0129039
0.0133718
0.0136145
0.0133197
0.0134739
0.0134216
0.0134874
0.0140932
0.0138808
0.0141425
0.0132037
0.0130638
0.0134224
0.0134782
0.0137586
0.014316
0.014971
0.0148894
0.015396
0.0147153
0.0132218
0.0133683
0.0134556
0.0130056
0.0128539
0.0127511
0.0126619
0.0122975
0.0123044
0.0123461
0.0133023
0.0126894
0.0127018
0.0128904
0.0130706
0.0128391
0.0126469
0.0124536
0.0128262
0.0129701
0.0130816
0.0131883
0.0126047
0.0125888
0.0126829
0.0131913
0.0138602
0.0127812
0.013037
0.0125211
0.0132752
0.0126809
0.0124325
0.0126973
0.0128521
0.0130553
0.0131478
0.0129343
0.0126971
0.0138376
0.0130313
0.0131895
0.013347
0.0129898
0.0129728
0.0136215
0.0136057
0.0138009
0.0129146
0.0129503
0.0139562
0.0144305
0.0140474
0.0140527
0.014116
0.014418
0.0150815
0.0150931
0.0153338
0.0150125
0.0130041
0.0129101
0.0131352
0.0131449
0.0133361
0.0132957
0.0136114
0.0131748
0.013188
0.0130022
0.0135599
0.0138167
0.0135428
0.013498
0.0132404
0.0132001
0.0136747
0.0143745
0.0147673
0.0153023
0.0132686
0.0135432
0.0132973
0.0134867
0.0140103
0.0148534
0.0141724
0.0141533
0.0138188
0.0142189
0.013461
0.0138345
0.0138343
0.0140438
0.0130505
0.012749
0.0125753
0.0126108
0.0136167
0.01296
0.013217
0.0138374
0.0141968
0.013551
0.0135071
0.0139731
0.013266
0.0131221
0.0128283
0.0125397
0.0135914
0.0135371
0.0135132
0.0132411
0.0126032
0.0126097
0.0127694
0.013019
0.0131982
0.0133889
0.0137737
0.0134917
0.0133343
0.0133967
0.0135224
0.0136319
0.0132201
0.0134223
0.0137001
0.0136396
0.0133183
0.013395
0.0134334
0.01351
0.0137857
0.0132754
0.0137945
0.0137847
0.0142274
0.0168816
0.0129048
0.0128868
0.0130633
0.0127326
0.0129763
0.0133351
0.0136481
0.014269
0.0151187
0.0154747
0.0137677
0.0134301
0.0134637
0.0142049
0.0142119
0.0140093
0.0141029
0.0144472
0.0157709
0.015392
0.013682
0.0138391
0.0141349
0.0144879
0.0141775
0.0140101
0.0141752
0.0138232
0.0137192
0.0142929
0.0132048
0.0134695
0.0133194
0.013512
0.0131492
0.0138228
0.0131116
0.0127856
0.0129348
0.0130023
0.0133739
0.0131551
0.0130309
0.0135741
0.0136083
0.0129336
0.0134799
0.014285
0.0138412
0.0143449
0.0130412
0.0131589
0.0127132
0.0128909
0.0125494
0.0127162
0.0132278
0.0131912
0.0135726
0.0132961
0.0137218
0.0139722
0.0137808
0.013874
0.014303
0.0141755
0.0143701
0.0149845
0.0139638
0.0142884
0.0134864
0.0138057
0.0135487
0.0133381
0.0135677
0.0139914
0.0142751
0.0146849
0.0143429
0.0145286
0.0132212
0.0131059
0.0135976
0.0135137
0.0140616
0.0139959
0.013773
0.0139053
0.014054
0.0136003
0.0134106
0.0133736
0.0130961
0.0133945
0.0130629
0.0136329
0.0136319
0.0137214
0.0141938
0.01453
0.0131842
0.0129492
0.0132787
0.0129442
0.0133299
0.0139999
0.0140993
0.0133647
0.0137317
0.0136006
0.013388
0.0128067
0.013198
0.0134887
0.0132318
0.0133353
0.0133633
0.0135742
0.0136997
0.0134541
0.0131747
0.0131423
0.0137319
0.0136673
0.0136759
0.0144969
0.0144537
0.0141296
0.0133766
0.0134234
0.0134033
0.0135126
0.0136484
0.0133646
0.0128924
0.0132541
0.0124439
0.0122107
0.0128804
0.013547
0.0133681
0.013281
0.0133206
0.0131521
0.0132963
0.0132825
0.0138214
0.014214
0.0141356
0.0147145
0.0137479
0.0141597
0.0136415
0.0132117
0.0132326
0.0141872
0.0136828
0.0139586
0.014318
0.0138486
0.0130176
0.012915
0.0126572
0.0132694
0.0131049
0.0128745
0.013019
0.013142
0.0134575
0.0130675
0.0136986
0.0138289
0.0134284
0.0133066
0.0134859
0.0136303
0.0139519
0.0138134
0.0133096
0.0138168
0.0134922
0.0133465
0.0127359
0.0131255
0.013931
0.0137099
0.0133639
0.0134246
0.0140568
0.0146362
0.0131732
0.0134726
0.0138045
0.0136423
0.0139251
0.013994
0.013785
0.0138542
0.0143749
0.0146375
0.0138046
0.0144016
0.0138889
0.0137953
0.0138965
0.0140223
0.0138645
0.0138758
0.0131728
0.012926
0.0133457
0.0128539
0.0133056
0.0132255
0.0129166
0.0129463
0.0133943
0.0137365
0.0137316
0.0130566
0.0133561
0.0132405
0.0130531
0.0132751
0.0138905
0.0134656
0.0131795
0.0126554
0.0124225
0.012518
0.0131963
0.0136574
0.0131016
0.013171
0.0133132
0.0132947
0.0136769
0.013876
0.0136585
0.013499
0.0134355
0.0127794
0.0130112
0.0135084
0.0132439
0.0133911
0.0125916
0.0131145
0.013565
0.0133491
0.0134765
0.0134863
0.0132056
0.0129091
0.0128434
0.0130093
0.0132843
0.0129609
0.0138788
0.0148144
0.0131742
0.0127145
0.0125068
0.0128891
0.0130697
0.013382
0.0128289
0.0133688
0.0133201
0.0129357
0.0134672
0.0136625
0.0140158
0.0133032
0.0126524
0.0129398
0.0134861
0.0145222
0.0132762
0.013378
0.0133166
0.0132428
0.012579
0.0126595
0.0123706
0.0128384
0.0132659
0.0128416
0.0125544
0.0130854
0.0128018
0.012677
0.0128549
0.0131245
0.0135681
0.0138556
0.0140899
0.0139288
0.0139679
0.0140573
0.0139131
0.014262
0.014619
0.0146479
0.014412
0.0147195
0.0147481
0.0141156
0.0137386
0.014646
0.0134848
0.0129364
0.0128928
0.0127016
0.013382
0.0132818
0.0134358
0.0138958
0.0139745
0.0135955
0.0132586
0.0126029
0.0128323
0.0131316
0.0127439
0.0128147
0.0127242
0.0128361
0.0126699
0.012969
0.0136441
0.0140194
0.0134355
0.0136409
0.0134809
0.0142352
0.0145715
0.0144409
0.0146452
0.0143823
0.0128979
0.0127005
0.0133375
0.0131227
0.0132173
0.0130731
0.0134154
0.0135638
0.013592
0.0136709
0.0133197
0.0132169
0.0131195
0.0135202
0.0136076
0.0136959
0.0131925
0.0136094
0.0140022
0.0158172
0.0137781
0.0136715
0.0135265
0.0130024
0.0123452
0.0130469
0.0133014
0.0128769
0.0142771
0.0151149
0.0134728
0.0132221
0.0137925
0.0141296
0.0141786
0.0143177
0.0147533
0.0153665
0.0151555
0.0155159
0.013516
0.0137751
0.0147028
0.0139861
0.013846
0.0137762
0.0143167
0.0143897
0.0147185
0.0162557
0.0131135
0.0128495
0.0129384
0.0134187
0.0138546
0.014305
0.0144942
0.0148032
0.0166129
0.0156008
0.0131613
0.0134007
0.0134416
0.0129614
0.0127952
0.0127299
0.0130039
0.0136864
0.013405
0.0131178
0.0136012
0.0139991
0.0137259
0.0134896