/*--------------------------------*- C++ -*----------------------------------*\
| =========                 |                                                 |
| \\      /  F ield         | OpenFOAM: The Open Source CFD Toolbox           |
|  \\    /   O peration     | Version:  2.4.0-MNF                             |
|   \\  /    A nd           | Web:      www.OpenFOAM.org                      |
|    \\/     M anipulation  |                                                 |
\*---------------------------------------------------------------------------*/
FoamFile
{
    version     2.0;
    format      ascii;
    class       volScalarField;
    location    "5e-05";
    object      velocityError_Ar;
}
// * * * * * * * * * * * * * * * * * * * * * * * * * * * * * * * * * * * * * //

dimensions      [0 0 0 0 0 0 0];

internalField   nonuniform List<scalar> 
77760
(
0.00283392
0.00282423
0.0029801
0.00298367
0.00298525
0.00282927
0.00294041
0.00286398
0.00371164
0.00634907
0.00310717
0.00320186
0.00286194
0.0028971
0.00293302
0.0028575
0.00282164
0.00308732
0.00378339
0.0051384
0.00279074
0.00275372
0.0027411
0.00271634
0.00268183
0.00269247
0.00269277
0.00299897
0.00426083
0.00436157
0.00275488
0.00281383
0.00285682
0.00285795
0.00289201
0.00290741
0.00290663
0.00320364
0.00342248
0.00391235
0.00287042
0.00286055
0.00288839
0.00283202
0.00286934
0.00289809
0.00290662
0.00329278
0.00330666
0.00393763
0.0027499
0.00274066
0.00274663
0.00278121
0.00274262
0.00272827
0.00312857
0.0035429
0.00364422
0.00366909
0.00273158
0.00273505
0.00275142
0.00274866
0.00270164
0.00296282
0.00271285
0.00298567
0.00305211
0.00342411
0.00288416
0.00286591
0.00283996
0.00282715
0.0028351
0.00284575
0.0028242
0.00289728
0.00301004
0.00472289
0.00281392
0.00280607
0.00277363
0.00278403
0.00279574
0.00283798
0.00284748
0.00310704
0.00288195
0.00491726
0.00282913
0.00278837
0.00281072
0.00278854
0.00280098
0.00279641
0.00282621
0.00287074
0.00338848
0.00432262
0.00270326
0.00276205
0.0028284
0.00290819
0.00292113
0.00290288
0.00280087
0.00269371
0.00286633
0.00355446
0.0028733
0.00288512
0.0028383
0.00285856
0.00282212
0.00281796
0.00285527
0.0028355
0.00293234
0.00381651
0.00282681
0.00288856
0.00292941
0.00286627
0.00287391
0.00293588
0.00311763
0.00294869
0.0034108
0.00431144
0.00276738
0.00274157
0.00272295
0.00277007
0.00277186
0.00286341
0.00289285
0.00312584
0.00340874
0.00503817
0.00282032
0.00284611
0.00287426
0.00302743
0.00302992
0.00307741
0.00310633
0.00293329
0.00320236
0.00450422
0.00291291
0.00291316
0.00287883
0.00282332
0.00282969
0.00282071
0.00286082
0.00290655
0.00391566
0.00528516
0.0028612
0.00286595
0.00284511
0.00289559
0.00292163
0.00294797
0.00288337
0.0028792
0.00325796
0.00503952
0.00293108
0.00295776
0.00292007
0.00290387
0.0029557
0.002917
0.00290372
0.00304326
0.00358386
0.00418365
0.00282023
0.0027416
0.00267922
0.00265892
0.00268385
0.00273965
0.00273934
0.00339012
0.00294185
0.00452805
0.00278919
0.0028616
0.00286561
0.00283794
0.00279599
0.00277653
0.00280291
0.00281928
0.00344104
0.00425786
0.0028659
0.00293973
0.00296241
0.00298604
0.00305381
0.00306075
0.0030259
0.00312427
0.0034495
0.00420007
0.00277978
0.00285311
0.00282687
0.00282176
0.0028038
0.00285031
0.00301774
0.00308687
0.00318878
0.00438262
0.00286688
0.00294327
0.00288715
0.00293999
0.00291373
0.00287997
0.00329464
0.00294038
0.00346386
0.00416551
0.00283521
0.0027278
0.00279718
0.00285062
0.00286032
0.00278941
0.00297995
0.00312448
0.00327238
0.00432561
0.00276638
0.00282778
0.00279114
0.00272919
0.00271007
0.00274182
0.00272527
0.00279292
0.00313034
0.00461274
0.00282334
0.00278672
0.00272309
0.00277167
0.00277163
0.00278678
0.00282145
0.00280235
0.00277851
0.00422936
0.00277762
0.00271639
0.00274181
0.00272612
0.00279485
0.00275774
0.00305581
0.00273404
0.00297689
0.00358311
0.00280641
0.00289326
0.00280348
0.00275027
0.00273274
0.0027844
0.00288951
0.00318958
0.00302653
0.00355658
0.00276104
0.00275436
0.00283463
0.00286341
0.00287302
0.00281556
0.00281105
0.00286478
0.00334169
0.00483722
0.00285035
0.00284593
0.00283599
0.00286805
0.00290281
0.00295048
0.00294165
0.00288437
0.00297428
0.00446887
0.00279209
0.00283035
0.002801
0.00278675
0.00284049
0.00281455
0.00279314
0.00289373
0.00354444
0.0044084
0.00290574
0.00293258
0.0029913
0.00291263
0.00293694
0.00295523
0.00291164
0.0033568
0.00340489
0.00418894
0.00282422
0.00280439
0.0027827
0.00280056
0.00279412
0.00291865
0.00287939
0.00294982
0.00316876
0.00396745
0.00280176
0.00282546
0.00284104
0.00288315
0.00291661
0.00288931
0.00288643
0.00293943
0.00354538
0.00450121
0.00271456
0.00267796
0.00269075
0.00267279
0.00260582
0.00264824
0.00271388
0.00288791
0.00280531
0.00356861
0.00281209
0.00282623
0.00281256
0.00280554
0.00284239
0.00285153
0.00281384
0.00278969
0.0027622
0.002962
0.00283109
0.00283219
0.00283877
0.00285626
0.00289805
0.00308924
0.00309
0.00320845
0.00429857
0.00569091
0.00282128
0.00282686
0.00285923
0.00283529
0.00278731
0.00290544
0.00319059
0.00373811
0.00337479
0.00526455
0.00275812
0.00280345
0.00280394
0.0027975
0.00302146
0.00321216
0.00327984
0.00333391
0.00392006
0.00496666
0.00287761
0.00287181
0.00286123
0.00303059
0.00305699
0.00281464
0.00280807
0.00313826
0.00381008
0.00381622
0.00270607
0.00276022
0.00296393
0.00299965
0.00281038
0.00275498
0.00276007
0.00321919
0.00317984
0.00383287
0.00267894
0.0029357
0.00286169
0.00281914
0.00293496
0.00297895
0.00296163
0.00303884
0.00338674
0.00376605
0.00283886
0.00286196
0.0027435
0.0027073
0.00272239
0.00270321
0.00277233
0.00281604
0.0030027
0.00380991
0.00280448
0.00277519
0.00278652
0.00270957
0.00278235
0.00274766
0.0027711
0.0032681
0.00356898
0.00453216
0.00273844
0.00270685
0.00263381
0.0026856
0.00268112
0.00268462
0.00271406
0.00327161
0.00376861
0.00406268
0.00283329
0.00282697
0.00285092
0.0027955
0.00271372
0.00266151
0.00308936
0.00291603
0.00336284
0.00424597
0.00279309
0.0028769
0.00280908
0.00276537
0.00283925
0.00282751
0.00322552
0.00342196
0.0031524
0.00403199
0.00281697
0.00275295
0.00282375
0.00289317
0.00285688
0.00287217
0.00309697
0.00325048
0.00355045
0.00354696
0.0028138
0.00281815
0.0028246
0.00280463
0.00283387
0.00278137
0.00289297
0.00278346
0.00336514
0.00409385
0.00278392
0.00276294
0.0026685
0.00267308
0.00268077
0.00267068
0.00276678
0.00267917
0.00294806
0.0039345
0.00286696
0.00288023
0.00288709
0.00282914
0.00281421
0.00274091
0.00284624
0.00325998
0.00300077
0.00420186
0.00279161
0.0028543
0.00283951
0.00284914
0.00286866
0.00293062
0.0030358
0.00363004
0.00395812
0.00417962
0.00282815
0.00277836
0.00283244
0.00282879
0.00285843
0.00286188
0.00294053
0.00297503
0.00360767
0.00456688
0.00297574
0.0029188
0.00286815
0.00289373
0.00285945
0.00294083
0.00290579
0.00298117
0.00348479
0.0033118
0.00281852
0.00292516
0.00293789
0.00290368
0.0029113
0.00290518
0.00292781
0.00298944
0.00343604
0.00384469
0.00292897
0.00287856
0.00283814
0.00284089
0.00282403
0.00283812
0.00318581
0.00296933
0.00355524
0.00415977
0.00282883
0.00284849
0.00286377
0.0028197
0.0028383
0.00286782
0.00287454
0.00299148
0.00301464
0.00384735
0.00265522
0.00264388
0.00267887
0.00277243
0.00280228
0.00314049
0.00323835
0.00353553
0.00348873
0.00401317
0.0028544
0.00275905
0.00270712
0.00268697
0.00268325
0.00270431
0.00272306
0.00304642
0.00377122
0.00444287
0.00287064
0.0028877
0.00283743
0.00275687
0.00272321
0.00277151
0.00284075
0.00321184
0.00369847
0.00403664
0.00285099
0.00278896
0.00282834
0.00290159
0.00286153
0.0028237
0.00317982
0.00373019
0.0037607
0.00390802
0.00288007
0.00289772
0.00290757
0.00283342
0.00277209
0.00280478
0.00282668
0.00329419
0.00305971
0.00404401
0.00286545
0.00283355
0.00281551
0.00277702
0.00278865
0.00278224
0.00281216
0.00283228
0.00364139
0.00439651
0.00280334
0.0027685
0.00280169
0.00281997
0.00281177
0.00279245
0.00289191
0.002895
0.00339802
0.00436136
0.00270797
0.00276276
0.00274562
0.00273388
0.00272729
0.00277364
0.00268259
0.00286532
0.0036627
0.00427224
0.00284654
0.00280237
0.0028086
0.00285951
0.00279059
0.00277598
0.00278595
0.0029721
0.0030957
0.00388888
0.00278609
0.00284521
0.00285003
0.00284039
0.00284869
0.00278913
0.0027731
0.0027822
0.00303649
0.00403473
0.0027584
0.00270729
0.00274749
0.00283056
0.00287302
0.00277773
0.00279673
0.00281027
0.00308113
0.00312551
0.00284955
0.00284589
0.0028089
0.00282492
0.00281184
0.0027249
0.00271232
0.00283987
0.00329773
0.00394417
0.00281874
0.00277826
0.00276635
0.00285762
0.0028223
0.0029328
0.00289232
0.00298452
0.00315242
0.00384171
0.00277353
0.00277375
0.00279202
0.00278534
0.0027864
0.00279393
0.00309239
0.00317108
0.0035645
0.00400508
0.00283031
0.00280284
0.00280102
0.00286625
0.0028785
0.00285734
0.00283166
0.00286447
0.00296104
0.00363273
0.00291307
0.00287203
0.00288455
0.002883
0.00284171
0.00280178
0.00274803
0.00334898
0.00403121
0.0055498
0.00275757
0.00279685
0.002759
0.00274028
0.00271702
0.00277316
0.00283251
0.00344865
0.00419773
0.00503692
0.00286069
0.00282869
0.00278693
0.00281831
0.00288958
0.00329369
0.00296334
0.00288538
0.00294345
0.00382697
0.00286854
0.00281975
0.00275502
0.00277033
0.00273037
0.00273631
0.00265314
0.00292737
0.00305697
0.004144
0.00292468
0.00284658
0.0028902
0.0028366
0.00279424
0.00279972
0.00278435
0.00313108
0.00358306
0.00377956
0.00269671
0.00273729
0.00278723
0.00275628
0.00277347
0.00289876
0.00319688
0.00310677
0.00281762
0.0032896
0.00279067
0.00286673
0.00283313
0.00280508
0.00300086
0.00269193
0.00292146
0.00355297
0.00338524
0.00372566
0.00276205
0.0028927
0.0029299
0.00291303
0.00309809
0.00303099
0.00299527
0.00328813
0.00370289
0.00381772
0.00291107
0.00285432
0.00281153
0.00285115
0.00282265
0.00318663
0.00329239
0.00281739
0.00342401
0.00326361
0.00280885
0.00279437
0.00285869
0.00281973
0.00277976
0.00277191
0.00280947
0.00275346
0.00275565
0.00297011
0.00283591
0.00286769
0.00284917
0.00287638
0.00287451
0.00286754
0.00283534
0.00280599
0.00284808
0.00315907
0.00285349
0.00286807
0.00290618
0.00293871
0.00287278
0.00282932
0.00326358
0.00352304
0.00354091
0.0033133
0.00286191
0.00287537
0.00279919
0.0027981
0.00281495
0.00283615
0.00278379
0.00292645
0.00334653
0.00366136
0.00277256
0.00281749
0.00275205
0.00277155
0.00270026
0.00273286
0.00285244
0.00295585
0.00337397
0.00381931
0.00275211
0.00270935
0.00273069
0.00280964
0.00284019
0.00278562
0.00295844
0.00296991
0.00318736
0.00363358
0.00283166
0.00283402
0.00289722
0.0031951
0.00319382
0.00330876
0.00336675
0.00348771
0.00394923
0.00420027
0.00285847
0.00285612
0.00278691
0.00281707
0.00288223
0.00296117
0.00292127
0.00303061
0.00357915
0.00390434
0.00280952
0.00284299
0.00295031
0.00291152
0.00284709
0.0027592
0.00294291
0.00300209
0.00312854
0.00303881
0.00283119
0.00282804
0.00289588
0.00284866
0.00286831
0.00290529
0.00329327
0.00349195
0.00370539
0.00335302
0.00285265
0.00282867
0.00280853
0.00285839
0.00284024
0.00289197
0.00297081
0.00325756
0.00375788
0.00369722
0.00285567
0.00278816
0.00278082
0.00273181
0.00272064
0.0027626
0.00302772
0.00329039
0.00356169
0.00420999
0.00276147
0.00277504
0.00273516
0.00269126
0.00269496
0.00269191
0.00275874
0.00261221
0.00275023
0.0035891
0.00276694
0.00280512
0.00287513
0.00285549
0.00279891
0.00281082
0.00281356
0.00296697
0.00337018
0.00418169
0.002769
0.00280559
0.00280661
0.00289037
0.0028889
0.00291447
0.00302221
0.00298189
0.00310538
0.00338153
0.00279853
0.00276353
0.00279435
0.00271496
0.00284581
0.00292081
0.00313156
0.00291868
0.00321135
0.00358919
0.00277637
0.00278112
0.00280793
0.00279988
0.00277051
0.00275408
0.00270746
0.00284574
0.0035102
0.00390341
0.00281242
0.00283254
0.00285868
0.00283886
0.00290223
0.00296089
0.0028174
0.00286244
0.00341421
0.00330329
0.00282417
0.00279067
0.00274395
0.00279463
0.00287313
0.00284366
0.00288433
0.00295733
0.00377469
0.00373358
0.00279365
0.00281188
0.0028196
0.00281006
0.00280918
0.00277318
0.00276624
0.00300267
0.00337822
0.00384244
0.00287142
0.00288338
0.00287694
0.00284126
0.00286949
0.00288112
0.00272412
0.00289346
0.00299376
0.00334696
0.00282162
0.00281408
0.00277195
0.0027982
0.00277214
0.00274526
0.00281499
0.00295787
0.00329392
0.00344232
0.00280025
0.00283363
0.0028649
0.00281001
0.0028592
0.00287493
0.00295986
0.00338237
0.00330701
0.00350359
0.00277445
0.00276443
0.00271088
0.00273543
0.00283446
0.00287313
0.00289848
0.00318832
0.00364051
0.00378293
0.00301487
0.00309194
0.0030675
0.00295382
0.00298577
0.00311314
0.0028824
0.00288795
0.00299573
0.00332429
0.00279547
0.00291106
0.00292238
0.0028671
0.0028512
0.00289158
0.00290454
0.00341508
0.00336781
0.00322295
0.0028371
0.00283388
0.00284386
0.00279114
0.00285698
0.00286377
0.00318046
0.00285296
0.00292761
0.00294702
0.00277253
0.00274586
0.00271212
0.00271151
0.00278802
0.00281806
0.00313116
0.00346379
0.00319133
0.00415747
0.00286043
0.00290915
0.00292983
0.00292543
0.0029384
0.00293699
0.00367424
0.0037446
0.00382248
0.00402652
0.00280357
0.00285309
0.00285607
0.00281626
0.00285879
0.00284521
0.00281853
0.00359062
0.00405773
0.00404577
0.00283063
0.00275355
0.00286848
0.00270932
0.00276459
0.00277958
0.00307579
0.00343381
0.00280971
0.00382222
0.00272951
0.00275065
0.00305152
0.00281153
0.00274911
0.00282127
0.00282302
0.00295803
0.0029848
0.0035146
0.00280902
0.00281007
0.00284059
0.00326227
0.00290239
0.00290442
0.00302291
0.00283915
0.00300661
0.00320723
0.00280269
0.002775
0.00281775
0.0029983
0.00310242
0.00305012
0.00310895
0.00302964
0.00321181
0.00346018
0.0028709
0.00286912
0.00283036
0.00279324
0.0028159
0.00285289
0.00313404
0.00280473
0.00310916
0.00285401
0.0028025
0.00276326
0.00280423
0.00285418
0.00284778
0.00282572
0.00285853
0.00317739
0.00329307
0.00304667
0.00279275
0.002834
0.00278487
0.00276887
0.00271736
0.00274617
0.00272796
0.00294458
0.00304596
0.00373871
0.00271446
0.00269573
0.00271179
0.00276717
0.00281232
0.00279264
0.00305314
0.00293395
0.00278194
0.0031865
0.00288369
0.00286887
0.00293194
0.00288987
0.003183
0.00330883
0.00294495
0.00353073
0.00298053
0.00365655
0.00291223
0.00289786
0.00292384
0.002889
0.00279999
0.00283383
0.00285727
0.00290638
0.00325338
0.00317639
0.00283206
0.00286895
0.00281155
0.00278831
0.00280829
0.00277749
0.0028455
0.0033902
0.00315657
0.00327693
0.00283944
0.00285706
0.00286374
0.00289971
0.00287086
0.00287276
0.00296639
0.00338592
0.00327874
0.00317593
0.00285512
0.00301711
0.0030532
0.00276913
0.00285938
0.0031712
0.00304432
0.00324041
0.00333193
0.00284961
0.00310087
0.00301847
0.00287225
0.00290114
0.00304559
0.00278725
0.00279697
0.00287038
0.0033971
0.00386461
0.00282417
0.00291209
0.00289445
0.00287455
0.00283779
0.00282919
0.00272868
0.00268082
0.00281033
0.00302431
0.0029297
0.00284797
0.00274474
0.00279148
0.00285514
0.00299722
0.00344794
0.00326823
0.0031621
0.00308853
0.00281842
0.00285482
0.00288207
0.00294329
0.00286461
0.00288039
0.00282305
0.00279393
0.00351467
0.00266816
0.00280373
0.00278647
0.00287798
0.00294524
0.00296289
0.00295332
0.00348077
0.00297144
0.00305246
0.00337538
0.00282714
0.002784
0.00280723
0.00286735
0.0027979
0.00282586
0.00284157
0.0027842
0.00309056
0.00366958
0.00275762
0.00275676
0.00275826
0.00278294
0.00286787
0.0028503
0.00290385
0.00278228
0.00288397
0.00399494
0.00278626
0.00287964
0.00295661
0.00293544
0.00288144
0.0029309
0.00287654
0.00318947
0.0035333
0.00293674
0.00277296
0.00275432
0.00277604
0.00281604
0.00281877
0.00283455
0.00282089
0.00279756
0.00295629
0.00308712
0.00282586
0.00275643
0.00270317
0.00274871
0.00275873
0.0027245
0.0026881
0.00301665
0.00295014
0.00336293
0.00280451
0.00279043
0.00279672
0.00275466
0.0026826
0.00272421
0.00277578
0.00336237
0.00315378
0.00382211
0.00293585
0.00293345
0.002873
0.00283926
0.0029411
0.00294086
0.00294292
0.0033746
0.00306912
0.00308446
0.00278157
0.00277067
0.00279667
0.00279803
0.00274745
0.00276661
0.00304939
0.00283701
0.00318899
0.00343945
0.00291923
0.00289052
0.00289632
0.00287744
0.0029017
0.00293017
0.00303145
0.0032841
0.00300282
0.0028049
0.00292326
0.00293482
0.00291333
0.00279374
0.00278339
0.00274899
0.00266141
0.00279977
0.00282125
0.00300798
0.00278522
0.00278215
0.00279543
0.00285276
0.0028823
0.0028434
0.00303045
0.00300008
0.00384805
0.00396566
0.00283301
0.00290801
0.00293414
0.00285672
0.00289024
0.00308645
0.00318609
0.00299824
0.00310691
0.00295682
0.00271162
0.00268955
0.00274475
0.00284549
0.00286772
0.00288707
0.00288206
0.00307997
0.00327731
0.00324602
0.00281637
0.00281226
0.00271673
0.00273504
0.00282518
0.00279716
0.00287082
0.00291982
0.0029541
0.00288418
0.00296253
0.00287358
0.00279115
0.00276059
0.00273338
0.00298238
0.00298326
0.00270737
0.00274081
0.00285209
0.00276279
0.00278378
0.00276971
0.00285495
0.00280527
0.00282753
0.00310356
0.00297413
0.00322932
0.00400804
0.00281488
0.00283176
0.00276354
0.00301575
0.00315338
0.00328145
0.00342913
0.00316964
0.00312234
0.00362548
0.00282196
0.00286861
0.00288908
0.00288465
0.00291174
0.00289081
0.00291411
0.00314668
0.00319138
0.00353382
0.00289419
0.00294693
0.00284043
0.00292161
0.00293782
0.00306323
0.00291572
0.00285303
0.0034676
0.00384037
0.00286707
0.00290478
0.00293381
0.00286823
0.00286384
0.003189
0.00280416
0.00281246
0.00338374
0.00333419
0.00284971
0.00289504
0.00291161
0.00292885
0.00300297
0.00341757
0.00298547
0.00363086
0.00295369
0.00280759
0.00289471
0.00286978
0.00286579
0.00290373
0.00290713
0.00290525
0.00302951
0.00326058
0.00307547
0.0030407
0.00284876
0.00286707
0.00293011
0.00294385
0.00297019
0.00296411
0.00300068
0.00301751
0.00328307
0.00301715
0.0028269
0.00281292
0.00279868
0.00275168
0.00271783
0.00278914
0.00294229
0.00286996
0.00302426
0.00361508
0.00287796
0.00285941
0.0028563
0.00288817
0.00297362
0.00330328
0.0029703
0.00296671
0.00304208
0.0033963
0.00281021
0.00282451
0.00300861
0.00297496
0.00283378
0.00284456
0.00300642
0.00296744
0.00289595
0.00337474
0.00276811
0.00273809
0.0027074
0.00299326
0.00286906
0.00278591
0.00284928
0.00316852
0.00285893
0.00317122
0.00277458
0.00275214
0.00281478
0.00281258
0.00279918
0.00280571
0.00298875
0.00268895
0.00276359
0.00296635
0.00281041
0.00285177
0.002882
0.00288214
0.00283126
0.00310813
0.00311411
0.00302907
0.00289349
0.00320035
0.00295371
0.00296698
0.0029307
0.00293027
0.00295011
0.00290599
0.00282825
0.00291142
0.00291666
0.0030684
0.00284726
0.00288756
0.00299782
0.00316491
0.00319777
0.0031312
0.00297945
0.00281191
0.00301033
0.00306219
0.00309017
0.00299148
0.00291679
0.00285887
0.00297328
0.00318976
0.00296407
0.00362911
0.00339701
0.00307072
0.00285031
0.00287086
0.00288687
0.00291496
0.00289817
0.00287106
0.00283822
0.00299394
0.00308431
0.00314192
0.00285079
0.00282862
0.00286156
0.00281007
0.00295608
0.0030799
0.00303263
0.00322905
0.00328409
0.00281315
0.0027998
0.00283738
0.00294122
0.00307741
0.00308372
0.00312426
0.00275712
0.00275245
0.00288613
0.00292687
0.00287103
0.00291573
0.00284813
0.00281274
0.00319081
0.00310047
0.00277557
0.00268822
0.00270882
0.00306442
0.00286742
0.00282926
0.00283518
0.00285421
0.00284245
0.00289718
0.00276421
0.00283849
0.00316846
0.00316039
0.00273611
0.00283262
0.0028734
0.0029678
0.00298127
0.00294082
0.0029118
0.0031418
0.00326383
0.00350314
0.00282524
0.00278433
0.00274667
0.00277373
0.00287711
0.00286274
0.00288156
0.00304159
0.00288619
0.00304861
0.00287367
0.00293
0.00290668
0.00290839
0.00289877
0.00283812
0.00279906
0.00278966
0.00295042
0.00305467
0.00288785
0.0029229
0.00295282
0.00286407
0.00282435
0.00287071
0.00305869
0.00348889
0.00328469
0.00344624
0.002763
0.00280789
0.00288621
0.00292202
0.00295807
0.00290884
0.00300736
0.00317553
0.00320249
0.00336403
0.00288063
0.00296118
0.0030031
0.00297443
0.00296138
0.00287752
0.0030043
0.00324604
0.0032247
0.00328434
0.00288766
0.00284468
0.00288787
0.00289371
0.00290288
0.00292958
0.00296237
0.0031888
0.00301505
0.00359686
0.00282093
0.00278943
0.00281188
0.00283019
0.00284064
0.00284663
0.00301605
0.00308255
0.00300333
0.00287485
0.00288632
0.00288542
0.00281965
0.00274134
0.00271658
0.00278879
0.00299012
0.0029823
0.00269837
0.00325849
0.00281614
0.00286411
0.00287566
0.00294005
0.0028854
0.00292573
0.00287445
0.00314081
0.00318058
0.00284836
0.00295697
0.00283478
0.0028053
0.00277406
0.00279634
0.002783
0.00284841
0.00304236
0.00323835
0.00304565
0.00275916
0.00280258
0.00283156
0.00279805
0.00283077
0.00287001
0.00291568
0.00299396
0.002986
0.00329304
0.00288193
0.00290999
0.00290132
0.00287084
0.00278432
0.00276653
0.0026928
0.00276297
0.00307513
0.00306175
0.00273722
0.0027473
0.00277771
0.00283456
0.00284313
0.00291608
0.00290452
0.00279884
0.00285061
0.00304345
0.00275677
0.0029261
0.00303017
0.00301082
0.00288568
0.00273235
0.00277967
0.00289213
0.00348019
0.00454369
0.00296563
0.00298847
0.00302167
0.00295059
0.00297152
0.00329827
0.00325903
0.00330192
0.00366476
0.00422033
0.00289963
0.00284471
0.00285725
0.00295155
0.00281504
0.00282074
0.00321874
0.00328788
0.0044136
0.00455895
0.00276252
0.00277124
0.00283374
0.00282519
0.00282201
0.00277829
0.00282523
0.00322303
0.00360693
0.00328958
0.00280501
0.00275549
0.00273864
0.00271864
0.00269575
0.00267883
0.00268255
0.0029009
0.00291764
0.0030931
0.00290567
0.002902
0.00292445
0.00282201
0.00279379
0.00296034
0.00309415
0.00291735
0.00288786
0.00294365
0.00284769
0.00274051
0.00273218
0.00280157
0.00284713
0.00298359
0.00296047
0.00288866
0.0029898
0.00308574
0.0028532
0.00284285
0.00285868
0.00287014
0.00284001
0.0027403
0.00265568
0.0027036
0.00313023
0.00270262
0.00275251
0.00281118
0.00281356
0.00276407
0.00314669
0.00292636
0.00295534
0.00301278
0.00281679
0.00291773
0.0027954
0.00284929
0.00286257
0.0028428
0.00281834
0.00290261
0.00283891
0.00278319
0.00278374
0.00293085
0.00296079
0.00294519
0.00288841
0.00285767
0.00280565
0.00290608
0.00300996
0.00288688
0.00319584
0.00314051
0.00279087
0.00278203
0.00279127
0.00283501
0.0028681
0.00280463
0.00302603
0.00279444
0.00285098
0.00310621
0.0029062
0.00289317
0.00285684
0.00283784
0.00288667
0.00293752
0.0030755
0.00288784
0.00290056
0.00285485
0.0028143
0.00275961
0.00274916
0.0029136
0.00302352
0.00276404
0.00291928
0.00283279
0.00280278
0.00277902
0.00290326
0.00282701
0.00280723
0.00276305
0.00270899
0.0026786
0.00276613
0.002655
0.00268484
0.00286391
0.00275012
0.0027323
0.00275886
0.00279193
0.00303302
0.00300576
0.00287582
0.002817
0.00277838
0.00304818
0.00285115
0.00282305
0.00280421
0.00272998
0.00273789
0.00280273
0.00326143
0.00322825
0.00308245
0.0032567
0.00275135
0.0027712
0.00287692
0.00290859
0.0029218
0.00290122
0.00292137
0.00293556
0.00283141
0.0032217
0.00272752
0.00275098
0.00276781
0.00290443
0.00306145
0.0030663
0.00287639
0.00322842
0.0029452
0.00291488
0.00284773
0.0028995
0.00297843
0.00289923
0.00287528
0.00313616
0.00285289
0.00288933
0.00280987
0.00304886
0.00266771
0.00270817
0.00270069
0.00272139
0.00274782
0.00274794
0.00274877
0.00277619
0.00277405
0.00310406
0.00277152
0.00275457
0.00270781
0.00268282
0.00284885
0.00274982
0.00274238
0.00284027
0.00281005
0.00280169
0.00276476
0.00277026
0.00274401
0.002734
0.00273694
0.0027493
0.0027518
0.00289061
0.002879
0.00311078
0.00268392
0.00275454
0.00269867
0.00265079
0.00257516
0.00260427
0.00275833
0.00278478
0.00269714
0.00310339
0.00284436
0.00277397
0.00268176
0.00273074
0.00280919
0.00284658
0.00286346
0.00301764
0.0028876
0.00320597
0.00271024
0.00270826
0.00274993
0.00277448
0.00283143
0.00278069
0.00294258
0.00293547
0.00271596
0.00300592
0.00287694
0.00288283
0.00283346
0.00279116
0.00278092
0.00276386
0.00280304
0.00337214
0.00310992
0.00311499
0.002853
0.00278707
0.00276986
0.00277512
0.0027552
0.00274636
0.00315176
0.00276658
0.00278065
0.00299524
0.00273681
0.00280849
0.00283219
0.00284221
0.00287712
0.00288489
0.00293953
0.00290809
0.00303113
0.00301766
0.00278406
0.00277911
0.00275703
0.00271624
0.00273107
0.00281483
0.00306381
0.00285592
0.00290037
0.00278007
0.00280776
0.00282583
0.00285118
0.00287836
0.0029015
0.00289287
0.00309739
0.00287704
0.00275145
0.00319956
0.00284858
0.00279863
0.00286045
0.00280013
0.00274279
0.00281168
0.00283206
0.00296382
0.00289751
0.00292341
0.00276666
0.00273917
0.00279661
0.00280559
0.00276838
0.00277695
0.00283382
0.00319228
0.0029492
0.00275691
0.00281279
0.00276115
0.00279807
0.00279863
0.00290404
0.00288507
0.00313627
0.00323678
0.00294353
0.0032186
0.00273721
0.00265559
0.00267022
0.00275688
0.00281297
0.0028817
0.00281493
0.00303496
0.00309467
0.00288314
0.0028395
0.00292673
0.00291566
0.00289637
0.00287624
0.00288784
0.00279766
0.00275803
0.00275284
0.00274105
0.00272209
0.00273848
0.00279834
0.00281372
0.00293396
0.00309732
0.00325845
0.00321539
0.00327164
0.00447536
0.00282476
0.00277625
0.00276478
0.00291164
0.0033999
0.00308954
0.00301173
0.00307599
0.00337791
0.00476436
0.00284751
0.00296193
0.00300782
0.00320297
0.0032939
0.00294278
0.00299302
0.00339063
0.00389753
0.00397741
0.00276452
0.00278969
0.00281938
0.00279197
0.00285599
0.00320356
0.00297954
0.00332678
0.00359073
0.00353973
0.00280622
0.00281644
0.0028574
0.00291636
0.00293996
0.00301373
0.00290063
0.0029122
0.00322351
0.00295537
0.00285879
0.00279303
0.0027334
0.00271182
0.00276462
0.0028987
0.00297548
0.00281627
0.00305668
0.00291796
0.00288141
0.00292023
0.00297591
0.00292367
0.00294378
0.00293003
0.00303315
0.00295244
0.00294345
0.002955
0.00276613
0.00279989
0.00281418
0.00285688
0.00283277
0.0028475
0.00293577
0.00290341
0.00303871
0.00296775
0.0029589
0.00298783
0.00298529
0.00292122
0.00281468
0.00282235
0.00281087
0.00300158
0.00286591
0.0030545
0.00288366
0.00282781
0.00282588
0.002897
0.00288818
0.00294959
0.00287473
0.00290998
0.00287761
0.00292369
0.00281676
0.00286486
0.00288613
0.00289056
0.00290048
0.00303408
0.00303462
0.0030926
0.0030631
0.00331606
0.00279799
0.00285426
0.00286676
0.00295579
0.0029369
0.00280362
0.00287568
0.00295118
0.00279294
0.00302163
0.0028018
0.00282278
0.00281901
0.00271924
0.00267
0.00271589
0.00275383
0.0028421
0.00290081
0.00292962
0.00280362
0.0028166
0.00308858
0.00292105
0.00286815
0.00290391
0.00283148
0.00286332
0.0029573
0.00293242
0.00288097
0.00290735
0.00286107
0.00284063
0.00281152
0.00276236
0.00285885
0.0026773
0.00282808
0.00264086
0.00276128
0.00275829
0.00274439
0.00268968
0.00269206
0.00264134
0.00260815
0.00262657
0.00290368
0.00302044
0.00279475
0.00279239
0.00282228
0.00286384
0.00285558
0.00289222
0.0030061
0.00284533
0.00276306
0.00281253
0.00284989
0.00285654
0.00286556
0.00284414
0.00287548
0.00290274
0.00284706
0.00286162
0.00303116
0.00282253
0.00276568
0.00277858
0.00278371
0.00281826
0.00294179
0.00279853
0.00281751
0.0029585
0.00286563
0.00279152
0.00284211
0.00283452
0.00291735
0.00289108
0.00280069
0.00278887
0.0028949
0.00294651
0.00291735
0.00306396
0.00283449
0.0027932
0.00277065
0.00279211
0.00289016
0.00297681
0.00267573
0.00284922
0.00277137
0.00279437
0.00272921
0.00275109
0.0028462
0.00288564
0.0028899
0.00293597
0.0028636
0.00301962
0.00290143
0.00300689
0.0028003
0.00276872
0.0028188
0.00279646
0.00281623
0.00289597
0.00301118
0.00300961
0.00305578
0.00297435
0.00272835
0.00273335
0.00271621
0.00273636
0.00272757
0.00268292
0.00283197
0.0026932
0.00270978
0.002729
0.00282987
0.00273985
0.00271547
0.0027496
0.00277271
0.0028126
0.00275738
0.00272833
0.00278513
0.0027596
0.00282297
0.00280238
0.00275864
0.0027411
0.00277048
0.00281033
0.00309577
0.0027658
0.00291128
0.00275703
0.00283592
0.00275983
0.00269837
0.00271567
0.00275138
0.00277835
0.00279917
0.00287816
0.002892
0.00328523
0.0028385
0.00282127
0.00281135
0.00277577
0.0027664
0.0029455
0.00290257
0.00305726
0.00277012
0.00285887
0.00289721
0.00296977
0.0029621
0.00295731
0.00297804
0.00301255
0.0032362
0.00309539
0.00325278
0.00305856
0.00283703
0.00277658
0.00283821
0.00286241
0.00289347
0.00287783
0.00293429
0.00287692
0.00291304
0.00290044
0.00292238
0.00301356
0.00293736
0.00286504
0.00285418
0.00284436
0.00290821
0.00310078
0.00307272
0.00338371
0.0028601
0.0028295
0.00279919
0.00282341
0.00287029
0.00299774
0.00293914
0.00296394
0.0029276
0.00304433
0.00281729
0.00297978
0.00291446
0.00294542
0.00287741
0.00279777
0.00279958
0.00283945
0.00323171
0.00293298
0.00283933
0.00291281
0.00294269
0.00281588
0.00278131
0.00312016
0.00285888
0.00282599
0.00273178
0.00272399
0.00284437
0.00288028
0.00284664
0.00278455
0.00270827
0.00270355
0.00275819
0.0027701
0.00283274
0.00284131
0.00285038
0.00282662
0.00285352
0.00285665
0.00288999
0.0028676
0.00277001
0.00283683
0.00292478
0.00294197
0.00279108
0.00281891
0.00286827
0.00288945
0.00291583
0.00282867
0.00289837
0.00288072
0.0030499
0.00438364
0.00274118
0.00273104
0.00274317
0.00278796
0.00290214
0.00307333
0.00311412
0.00314994
0.00359906
0.00395019
0.00294262
0.00292082
0.00291298
0.00310133
0.00286247
0.00284136
0.00293233
0.0030667
0.00371498
0.00363141
0.00293097
0.00291956
0.00297397
0.00305627
0.00294023
0.00287746
0.00286296
0.00289555
0.00312342
0.00332323
0.00275304
0.00276518
0.00274474
0.0027967
0.00272122
0.00301174
0.00290634
0.00294476
0.00305998
0.00301192
0.00282633
0.00281846
0.00283842
0.00292159
0.00289226
0.00281323
0.00288544
0.00302578
0.00290109
0.00301212
0.00281113
0.00277808
0.00272259
0.00273081
0.00273894
0.00271701
0.00292689
0.00297845
0.0029618
0.0028649
0.00286557
0.00288016
0.00288516
0.00292056
0.00294026
0.00293764
0.00297652
0.00316843
0.00291223
0.00308235
0.00290482
0.00293473
0.00287093
0.00283016
0.00282631
0.00288686
0.00291826
0.00297623
0.00293679
0.00306358
0.00281844
0.00276939
0.00284199
0.00281506
0.00292206
0.00287528
0.00281403
0.00283903
0.00280753
0.00284991
0.00282789
0.0028255
0.00280913
0.00285973
0.00284083
0.0030942
0.00287817
0.00291435
0.00296731
0.00305764
0.00273999
0.00271703
0.00277462
0.00278964
0.00282107
0.00292753
0.00312258
0.00285834
0.0029954
0.00306193
0.00288469
0.00281638
0.00285152
0.00279981
0.0027762
0.00283543
0.00286163
0.00288521
0.00288926
0.00287022
0.00281609
0.00275913
0.002877
0.00288827
0.00291728
0.0029892
0.00301469
0.00293997
0.00287207
0.00300483
0.00281897
0.00283296
0.00289245
0.00285142
0.00278504
0.00299471
0.00278864
0.00277355
0.00285499
0.00296878
0.00291465
0.0029098
0.0029162
0.0028099
0.00283097
0.00280715